<?xml version="1.0"?>
<VTKFile type="UnstructuredGrid"  version="0.1"  >
<UnstructuredGrid>
<Piece  NumberOfPoints="17661" NumberOfCells="34505">
<Points>
<DataArray  type="Float64"  NumberOfComponents="3"  format="ascii">0 1 0  0 0 0  2 0 0  2 1 0  0.2475528258147577 0.5154508497187473 0  0.25 0.5 0  0.2475528258147577 0.4845491502812526 0  0.2404508497187474 0.4706107373853763 0  0.2293892626146237 0.4595491502812526 0  0.2154508497187474 0.4524471741852423 0  0.2 0.45 0  0.1845491502812526 0.4524471741852423 0  0.1706107373853764 0.4595491502812526 0  0.1595491502812526 0.4706107373853763 0  0.1524471741852423 0.4845491502812527 0  0.15 0.5 0  0.1524471741852423 0.5154508497187473 0  0.1595491502812526 0.5293892626146237 0  0.1706107373853764 0.5404508497187474 0  0.1845491502812527 0.5475528258147577 0  0.2 0.55 0  0.2154508497187474 0.5475528258147577 0  0.2293892626146237 0.5404508497187474 0  0.2404508497187474 0.5293892626146237 0  0.4 0.5 0  0.6 0.6 0  0.6 0.4 0  1 0.8 0  1.3 0.6 0  1.3 0.4 0  1 0.2 0  0.7 0.4 0  0.7 0.6 0  1.4 0.6 0  1.6 0.5 0  1.4 0.4 0  1.847552825814758 0.5154508497187473 0  1.85 0.5 0  1.847552825814758 0.4845491502812526 0  1.840450849718748 0.4706107373853763 0  1.829389262614624 0.4595491502812526 0  1.815450849718747 0.4524471741852423 0  1.8 0.45 0  1.784549150281253 0.4524471741852423 0  1.770610737385376 0.4595491502812526 0  1.759549150281253 0.4706107373853763 0  1.752447174185242 0.4845491502812527 0  1.75 0.5 0  1.752447174185242 0.5154508497187473 0  1.759549150281253 0.5293892626146237 0  1.770610737385376 0.5404508497187474 0  1.784549150281253 0.5475528258147577 0  1.8 0.55 0  1.815450849718747 0.5475528258147577 0  1.829389262614624 0.5404508497187474 0  1.840450849718748 0.5293892626146237 0  1 0 0  1 1 0  0 0.5 0  2 0.5 0  0.5 0 0  1.5 0 0  1.5 1 0  0.5 1 0  1.75 0 0  1.75 1 0  0.25 1 0  0.25 0 0  1.25 0 0  0.75 0 0  0.75 1 0  1.25 1 0  0.3725554334277117 0.7642666300283135 0  0.375 0.235 0  1.625 0.235 0  1.625 0.765 0  0 0.25 0  0 0.75 0  2 0.75 0  2 0.25 0  0.625 0.81875 0  0.6499999999999999 0.190625 0  1.375 0.8187500000000001 0  1.375 0.18125 0  1.15 0.7 0  1.15 0.3 0  0.85 0.7 0  1.814791666666667 0.1852083333333333 0  1.811730769230769 0.7382692307692308 0  0.1852083333333333 0.1852083333333334 0  0.1840244119319019 0.815975588068098 0  0.85 0.3 0  2 0.875 0  1.152272727272727 0.1340909090909091 0  0.875 0 0  1.152272727272727 0.8659090909090909 0  0.8477272727272727 0.8659090909090909 0  0.8025975318471337 0.1491341560509555 0  0.5140763145316528 0.7206234211963826 0  0.4901224013758102 0.8594594147419381 0  1.875 1 0  1.48464960456942 0.2795221880492092 0  1.51016818730963 0.1407409912480207 0  1.48464960456942 0.7204778119507909 0  1.517998509539161 0.858828994435724 0  0.5218371613039796 0.2706765982218459 0  0.375 1 0  1.625 0 0  0 0.625 0  0.1279662324777819 0.3186873708662855 0  2 0.375 0  2 0.625 0  1.625 1 0  0.4762884050256251 0.1381321303327793 0  1.66715200204435 0.3671520020443497 0  0.3411194216097047 0.3718755262632354 0  1.66715200204435 0.6328479979556505 0  0.2293375031488215 0.6852297049426554 0  1.8125 0.8765958288588708 0  1.828700169805353 0.318794259420021 0  0.375 0 0  0.3030849358974359 0.1225080128205128 0  1.696915064102564 0.1225080128205128 0  0.3125 0.8827687679325231 0  0.4100587955541826 0.6346030229804038 0  2 0.125 0  1.875 0 0  0.125 0 0  0 0.125 0  0.125 1 0  0 0.875 0  0.5 0.45 0  0.5 0.55 0  1.278149224806201 0.7297238372093023 0  1.250775615004007 0.2184103757970662 0  0.7492243849959929 0.7815896242029338 0  1.125 1 0  1.375 0 0  1.375 1 0  0.625 0 0  0.625 1 0  1.125 0 0  0.875 1 0  0 0.375 0  1.5 0.55 0  1.5 0.45 0  0.2480454145864052 0.2911694084917106 0  0.1061636102285989 0.6875 0  0.9172520139947967 0.112654991253252 0  1.682026291298303 0.8825000000000001 0  0.6499999999999999 0.7050892857142856 0  1.35 0.2949107142857143 0  0.7749999999999999 0.35 0  1.263701301081917 0.8426362379684855 0  1.901952516101588 0.8069329477617702 0  0.6 0.5 0  0.7 0.5 0  1.3 0.5 0  1.4 0.5 0  1.727600713014309 0.2750723856898529 0  1.3125 0.09062500000000001 0  0.7142592324977534 0.8909203568981011 0  1.883829473776445 0.6450078637524899 0  0.6830874463519312 0.2933811695278971 0  0.7070263916632118 0.0989984759544718 0  0.4316959974368003 0.3216648344694547 0  1.380950802730399 0.7150815420254574 0  0.3065181328757786 0.6128678607000935 0  0.5818077415991646 0.1026164027410931 0  0.9375 0.9174691833590138 0  1.047116689280869 0.9 0  1.0625 0.08253081664098619 0  1.575831396629752 0.676518355006118 0  1.55888866349099 0.3587674601363565 0  1.4375 0.9202987442070407 0  0.925 0.25 0  1.898145355082274 0.2440468520852883 0  0.2101839610042735 0.09000834668803417 0  0.1061033326390469 0.1135790505786181 0  0.09544599273732228 0.2257275858847144 0  1.8125 0.08207278777652795 0  0.217966377040559 0.9076457089970479 0  0.2738344022609309 0.7738762677729314 0  0.0814316252519587 0.8125 0  1.4375 0.07525327865218089 0  0.5625 0.9249899135948225 0  1.904586244829915 0.1464615224468097 0  1.744016930730878 0.8078112236212321 0  1.336236868906671 0.909375 0  1.776885324280126 0.6459403188375784 0  0.1202836912147299 0.9022840281039533 0  1.708781716491081 0.7189249933309093 0  1.904101394003999 0.3958986059960003 0  1.225 0.35 0  0.7749999999999999 0.6499999999999999 0  0.07245832196556974 0.5649857308297664 0  0.07245832196556991 0.4350142691702333 0  1.600155803939286 0.09694604053970658 0  1.906498832379319 0.9050341767410571 0  0.7395198302319537 0.2185048068670455 0  1.929319135268518 0.5624131848615803 0  1.192971893151267 0.7823814560091357 0  1.075 0.75 0  0.4061659433429421 0.9081082988297638 0  0.5132215234690947 0.360618740666639 0  1.225 0.6499999999999999 0  0.925 0.75 0  1.075 0.25 0  0.5512900568072264 0.1864565208394959 0  1.581167620911809 0.5873352418236175 0  0.2885057759523771 0.2110616359185661 0  1.593994717940027 0.9123639132241911 0  0.4212267295746058 0.4095812569963867 0  1.9375 0 0  2 0.0625 0  0.3881495246442013 0.1473603292365287 0  0.4375 0 0  0.5203951145825836 0.634209770834833 0  1.479544041656137 0.6340880833122748 0  1.755651787083367 0.3687822938381424 0  1.224765949825823 0.08426701736150129 0  0.2206585476125226 0.3695670637204487 0  1.07506901412899 0.1645795091318676 0  1.151136363636364 0.2170454545454546 0  0.9249309858710097 0.8354204908681324 0  0.7900036951255988 0.9264973001454673 0  1.1875 1 0  1.221344379396217 0.918226669561771 0  0.8488636363636364 0.7829545454545455 0  2 0.3125 0  0.8425886855399499 0.07640702899038848 0  0.3451973255788813 0.6860982230385505 0  1.477176894376523 0.3706462112469538 0  1.892277940918713 0.7260390202279857 0  0.6053223777592734 0.2617163340157894 0  0.1366572879283138 0.6132172689980417 0  0.8767669976572787 0.183829901696625 0  1.734312916462054 0.194354217051338 0  0.6358370118041781 0.8966293729975513 0  0.0625 0 0  0.4254296797826017 0.07790150880037369 0  0.0625 1 0  0.325 0.480201944959433 0  1.92581980103314 0.4721133056178217 0  1.675 0.480201944959433 0  1.68664354441175 0.5573253462218921 0  1.082179034295607 0.8289260983483835 0  1.904764711899212 0.3198299058827855 0  0.4168432122069987 0.8297658089581273 0  0.4566447213929462 0.2189812831651196 0  1.591685173164597 0.8349342830268984 0  1.533749638400075 0.7818373685814323 0  1.455696077414499 0.8059760010402454 0  0.1686918926316089 0.7374366337613715 0  1.90625 0.06990635764468446 0  1.620885539353526 0.4271612268364069 0  1.542504721969586 0.2184236464568206 0  0.9949252774665426 0.1219386785908539 0  0.4338464485831625 0.7117387264759969 0  0.5863598564893037 0.7506712216607603 0  1.416648798464286 0.327639446233766 0  0.5838428563156408 0.6721266313560732 0  2 0.6875 0  1.412978141476274 0.249183169093648 0  0.1442761096606068 0.3906357074122901 0  0.3464733991224566 0.550813757819126 0  0.4672496122382359 0.7767891610807409 0  1.449528495155154 0.1841671848770897 0  0.5505824438750014 0.8159828333211079 0  0.06097042075975112 0.2899564099443032 0  0.162441804455353 0.2544585468066967 0  0.2515140598341737 0.8431055049241685 0  1.508091341603097 0.9292987433934674 0  0.3125 0 0  0.3530550570442522 0.06947972340498598 0  1.661411492502874 0.06098752102514014 0  0.2848293132020425 0.4151706867979574 0  1.302321766598192 0.1645086954495226 0  0.8156600088457951 0.2309188807474504 0  0.7 0.45 0  0.6 0.55 0  0.55 0.575 0  1.4 0.45 0  1.45 0.425 0  1.4 0.55 0  1.45 0.575 0  1.571812968831181 0.2861304084233215 0  1.530671578227107 0.06852186336978081 0  0.3630747334266106 0.3046791235976137 0  0.6875 1 0  0.4755617942555476 0.9311001820263514 0  2 0.1875 0  1.35 0.6508409658867128 0  1.595333463987267 0.1690763300181999 0  0.5132280109697771 0.07337192148753263 0  0.07018707600830057 0.3609417193972463 0  0.9375 0 0  0 0.0625 0  0 0.9375 0  1.325515777996516 0.2299455714704491 0  0 0.1875 0  1.660060967657433 0.2966152714601534 0  1.642615142985795 0.6978201027615898 0  0.5794576841249596 0.3299650910486734 0  0.2184968267666885 0.6167843680148617 0  1.813188555186561 0.8074265619392141 0  1.74918685017469 0.9220590235917012 0  1.8125 1 0  1.6875 1 0  1.84538439786796 0.9374701477032144 0  0.985829156030089 0.8680785867537879 0  1.71115653260446 0.42147410231474 0  0.7745858315663394 0.08637237667517719 0  0.8581308326208463 0.9336120648598586 0  1.114299681563871 0.9280047118126826 0  1.156995061722164 0.06331148205342724 0  1.768286804887032 0.1346484358995713 0  1.219879536571258 0.1548077115155514 0  1.273737374357294 0.2912273573052739 0  0.7262626256427063 0.708772642694726 0  0.7683710923653957 0.2812543740322987 0  1.74263903925824 0.06956570012770677 0  0.7757289136414349 0.8503225431286444 0  0.6499999999999999 0.3532805130518777 0  1.0625 1 0  0.45 0.525 0  0.45 0.475 0  0.9626187472125531 0.06266183112941157 0  1.830748432489386 0.2510639858274513 0  1.820709862628178 0.3854853370689849 0  0.5625 0 0  1.667964881073882 0.1832337384052585 0  0.28125 0.05921414769878126 0  0.2467253217
[...]
<PointData  Vectors="f_75"> 
<DataArray  type="Float64"  Name="f_75"  NumberOfComponents="3" format="ascii">-1.3756369131840868e-04 4.3678428653449566e-05 0.0000000000000000e+00  2.0282402233600177e-03 2.0679434832155314e-03 0.0000000000000000e+00  4.5803910017592315e-04 -4.1490195466378012e-04 0.0000000000000000e+00  -2.2655360912158338e-03 -2.2511426909139270e-03 0.0000000000000000e+00  -2.9006345543402962e-01 -9.2592904238042589e-02 0.0000000000000000e+00  -2.9168717233930735e-01 -1.8776508328208273e-03 0.0000000000000000e+00  -2.8921784515544269e-01 8.6347051202988023e-02 0.0000000000000000e+00  -2.4945999185556814e-01 1.8273250718979656e-01 0.0000000000000000e+00  -1.7933070520966701e-01 2.3835859965972922e-01 0.0000000000000000e+00  -9.1566288050180994e-02 2.6666834470830364e-01 0.0000000000000000e+00  -4.0864290884419963e-04 2.1865078846212910e-01 0.0000000000000000e+00  4.2921713354509172e-02 1.5695427566895814e-01 0.0000000000000000e+00  6.5940438774921326e-02 9.9723244780443809e-02 0.0000000000000000e+00  6.7831745424021067e-02 4.6462943713466702e-02 0.0000000000000000e+00  4.9411298912427619e-02 1.5095633145180920e-02 0.0000000000000000e+00  4.7943148233237261e-02 -1.3376635628984605e-03 0.0000000000000000e+00  5.0880559020564792e-02 -1.3594481050464551e-02 0.0000000000000000e+00  6.3404192951412142e-02 -4.6438494879331021e-02 0.0000000000000000e+00  6.1987077359650110e-02 -9.5266142578276369e-02 0.0000000000000000e+00  4.3665874979090899e-02 -1.5782483740386360e-01 0.0000000000000000e+00  1.2330377835366209e-02 -2.1655344679511357e-01 0.0000000000000000e+00  -7.8155063394921412e-02 -2.5772375008088044e-01 0.0000000000000000e+00  -1.9102642748513543e-01 -2.4599775399747656e-01 0.0000000000000000e+00  -2.4904515698448979e-01 -1.8249307330275830e-01 0.0000000000000000e+00  4.2141006285842780e-01 -3.8314325498694903e-03 0.0000000000000000e+00  -7.0897488014781365e+00 -7.7159090704735434e+00 0.0000000000000000e+00  -7.2299798073174664e+00 6.9795599137563586e+00 0.0000000000000000e+00  -8.7474355071061383e-02 9.4700099959058743e+00 0.0000000000000000e+00  1.0845254057865230e+01 5.7863135996238855e+00 0.0000000000000000e+00  1.1270255138081366e+01 -4.9040031621972124e+00 0.0000000000000000e+00  -8.4831898330733818e-02 -9.3593900309934899e+00 0.0000000000000000e+00  -1.0939335929276677e+01 -5.0280846167871136e+00 0.0000000000000000e+00  -1.1380352410117892e+01 5.1341536186171348e+00 0.0000000000000000e+00  6.6318175246146458e+00 -6.9965770751720768e+00 0.0000000000000000e+00  -4.2928911653553720e-01 -5.0159270815535919e-03 0.0000000000000000e+00  7.6715420570582902e+00 9.3468972230746044e+00 0.0000000000000000e+00  -5.2326784265941895e-02 -1.5634737635364430e-02 0.0000000000000000e+00  -4.5556063068744948e-02 -1.1300949592926220e-03 0.0000000000000000e+00  -4.8948259101236305e-02 1.6516978433231393e-02 0.0000000000000000e+00  -5.9022708966518574e-02 4.2074649655584155e-02 0.0000000000000000e+00  -7.2076308556018917e-02 9.4032282901144335e-02 0.0000000000000000e+00  -5.3016577002389730e-02 1.6429766487916117e-01 0.0000000000000000e+00  7.2059145502274889e-04 2.1551018375617387e-01 0.0000000000000000e+00  8.0051082360852427e-02 2.5446919579359001e-01 0.0000000000000000e+00  1.8070230784260288e-01 2.4346011576589421e-01 0.0000000000000000e+00  2.4856499663693421e-01 1.8985974976188588e-01 0.0000000000000000e+00  2.8511531281145547e-01 8.3497552578276860e-02 0.0000000000000000e+00  2.9663555249308993e-01 1.3311067244202554e-03 0.0000000000000000e+00  2.8473698663305680e-01 -9.4817797607211429e-02 0.0000000000000000e+00  2.5221670761334369e-01 -1.7760562241748101e-01 0.0000000000000000e+00  1.7923156041612323e-01 -2.4625370782875117e-01 0.0000000000000000e+00  9.0481197541435521e-02 -2.6376668458283065e-01 0.0000000000000000e+00  7.4155162147228814e-03 -2.2109792295059119e-01 0.0000000000000000e+00  -5.3910968093392408e-02 -1.5734629493017316e-01 0.0000000000000000e+00  -7.1402280070794910e-02 -9.9113141598786633e-02 0.0000000000000000e+00  -6.5300959258788316e-02 -4.8523631801786406e-02 0.0000000000000000e+00  -3.4475748044906801e-04 -3.9500428304705744e+00 0.0000000000000000e+00  -6.6822994146068589e-04 3.9491836231473707e+00 0.0000000000000000e+00  -2.0874646841405650e-02 3.6958090378653692e-05 0.0000000000000000e+00  2.0817501624476840e-02 6.4749319556396724e-05 0.0000000000000000e+00  4.8994856963364202e-03 -8.1899245719331837e-01 0.0000000000000000e+00  1.2710698818083718e-02 -8.1143812550318073e-01 0.0000000000000000e+00  -2.6913610132097299e-03 8.1025291235618813e-01 0.0000000000000000e+00  7.9172552275543658e-03 8.1250823574361331e-01 0.0000000000000000e+00  -6.7318391819760392e-03 -1.6943629605685492e-01 0.0000000000000000e+00  -6.3307441667879332e-04 1.6715604008045806e-01 0.0000000000000000e+00  2.9264492548956346e-04 1.6545187576624687e-01 0.0000000000000000e+00  -1.5209478323359826e-03 -1.6556719497369565e-01 0.0000000000000000e+00  5.1938229040238010e-03 -2.5053608323200693e+00 0.0000000000000000e+00  3.3961115204339505e-03 -2.4689044039474108e+00 0.0000000000000000e+00  -1.2039220297021500e-04 2.5297481910572714e+00 0.0000000000000000e+00  -3.4157778737026558e-03 2.5114187774945229e+00 0.0000000000000000e+00  -3.9830525743407991e-01 1.7569348287223154e-02 0.0000000000000000e+00  -3.9805927982953992e-01 -2.0655003787193277e-02 0.0000000000000000e+00  3.9714110716003997e-01 -1.9952578852429105e-02 0.0000000000000000e+00  4.0418219055959848e-01 2.7857685507046686e-02 0.0000000000000000e+00  -6.8055597334345380e-02 -3.9070273621336170e-05 0.0000000000000000e+00  -6.7935988959937382e-02 5.9759092055780204e-06 0.0000000000000000e+00  6.7948054301092783e-02 7.2084439160855708e-05 0.0000000000000000e+00  6.8076606659069797e-02 -3.2435061432264857e-05 0.0000000000000000e+00  -1.3913895334321817e+00 1.2333080893423278e+00 0.0000000000000000e+00  -1.5517477845833472e+00 -1.4625688817580285e+00 0.0000000000000000e+00  1.3951781326367518e+00 1.2493414158993341e+00 0.0000000000000000e+00  1.3924827656210181e+00 -1.2391436787924446e+00 0.0000000000000000e+00  2.1729392973272059e+00 3.2591162058893750e+00 0.0000000000000000e+00  2.1748056026846410e+00 -3.2612189305769919e+00 0.0000000000000000e+00  -2.1767644061775653e+00 3.2624212786465461e+00 0.0000000000000000e+00  1.1494863075617705e-01 -3.8616395948214373e-02 0.0000000000000000e+00  1.2779327131178331e-01 -1.2218645494365538e-02 0.0000000000000000e+00  -1.1633461838427403e-01 -3.8270155502523079e-02 0.0000000000000000e+00  -1.1545218269915490e-01 3.8514451073722290e-02 0.0000000000000000e+00  -2.1734695314212544e+00 -3.2604109359613966e+00 0.0000000000000000e+00  4.8812107404489546e-02 -2.3816530704488518e-04 0.0000000000000000e+00  1.0834093272617953e+00 -3.3574060587983796e+00 0.0000000000000000e+00  -4.8953910502542617e-04 -3.4768986694723840e+00 0.0000000000000000e+00  1.0759615363607604e+00 3.3571378208745681e+00 0.0000000000000000e+00  -1.0697326939187142e+00 3.3475340531359854e+00 0.0000000000000000e+00  -1.2364414487258066e+00 -2.9677669698825184e+00 0.0000000000000000e+00  -1.1535023226837136e+00 -2.1751156107831876e-01 0.0000000000000000e+00  -6.0629783980208996e-01 5.4822729548035731e-01 0.0000000000000000e+00  -1.2377911356523569e-04 6.2244232283793298e-02 0.0000000000000000e+00  1.1845633361873338e+00 2.3872961594109490e-01 0.0000000000000000e+00  6.0333734414124207e-01 -5.4514242968466486e-01 0.0000000000000000e+00  1.1512425488117672e+00 -2.3651642359546068e-01 0.0000000000000000e+00  5.7993840583834200e-01 5.1352288379959399e-01 0.0000000000000000e+00  -1.2175809692009367e+00 1.3451518156255654e-01 0.0000000000000000e+00  -6.5282222724338845e-04 3.7940462848695400e-01 0.0000000000000000e+00  -1.4031662922415378e-03 -3.7451662685968973e-01 0.0000000000000000e+00  -4.5572485294647309e-02 -2.9048886994883214e-04 0.0000000000000000e+00  -8.1001700770199511e-02 3.2520080999219637e-02 0.0000000000000000e+00  4.5949033644042243e-02 -2.4317287745811801e-04 0.0000000000000000e+00  4.5470687558484893e-02 -1.0226805918292952e-03 0.0000000000000000e+00  -1.1511119099452656e-03 3.7988926692017466e-01 0.0000000000000000e+00  -5.4681527469497049e-01 -5.0948468148331150e-01 0.0000000000000000e+00  1.9131099035036842e-01 1.8850107271842245e-01 0.0000000000000000e+00  -1.8901913458495559e-01 2.0155951350987178e-01 0.0000000000000000e+00  1.9223846583902093e-01 -1.8662465338551559e-01 0.0000000000000000e+00  -1.4855898135769710e-01 -6.5253437654450033e-02 0.0000000000000000e+00  9.0129903479350112e-02 7.2982539136957653e-02 0.0000000000000000e+00  1.0454971093268199e-01 4.6571551078509833e-02 0.0000000000000000e+00  3.8678913837653702e-03 -3.8353329287659532e-01 0.0000000000000000e+00  -1.7480264994536079e-01 -1.6986205150057182e-01 0.0000000000000000e+00  1.7606224605812720e-01 -1.6753607352945690e-01 0.0000000000000000e+00  -1.7582142541229778e-01 1.8649535030581399e-01 0.0000000000000000e+00  -2.6962075318916945e-01 -3.7379323750054394e-01 0.0000000000000000e+00  4.9888934598377115e-02 2.3703481499775218e-05 0.0000000000000000e+00  -1.1795491052998120e-04 -6.1345700034588120e-02 0.0000000000000000e+00  8.5199989564419334e-05 -6.1264066181737929e-02 0.0000000000000000e+00  -4.9609303415170565e-02 -2.9397608689324008e-05 0.0000000000000000e+00  -3.2716391786200683e-04 6.1672129809554055e-02 0.0000000000000000e+00  -5.0068797321173579e-02 -9.2348754309989840e-05 0.0000000000000000e+00  4.0572961026464421e-01 7.9631597074886418e-01 0.0000000000000000e+00  3.8655241401478768e-01 -7.6711229191581387e-01 0.0000000000000000e+00  2.6025761988321645e+00 2.4176385460925456e+00 0.0000000000000000e+00  1.9225610664096655e+00 -2.5311982094433203e+00 0.0000000000000000e+00  -1.8913508725292565e+00 2.5301745287576507e+00 0.0000000000000000e+00  1.5322086562988943e-03 3.4611666511776882e+00 0.0000000000000000e+00  2.3216425744786526e-03 -1.5459096681205213e+00 0.0000000000000000e+00  1.0739055756853709e-03 1.5471409630061228e+00 0.0000000000000000e+00  6.2561707368623985e-03 -1.5195460925990345e+00 0.0000000000000000e+00  1.7930487635744710e-03 1.5278958401694334e+00 0.0000000000000000e+00  -6.3290759610082721e-03 -3.4568199542217370e+00 0.0000000000000000e+00  -1.0727115657831147e-03 3.4663290894900345e+00 0.0000000000000000e+00  -4.5098844982643604e-02 -2.5598565251371209e-04 0.0000000000000000e+00  -3.8574691928321142e-01 -7.6621718083687662e-01 0.0000000000000000e+00  -3.9773968032451468e-01 7.9014996210893929e-01 0.0000000000000000e+00  -1.7287704551671557e-01 4.7031950040000325e-02 0.0000000000000000e+00  -7.5788864468330344e-02 -2.3882420441409272e-02 0.0000000000000000e+00  -7.5144920975471385e-01 -3.9586955739420056e+00 0.0000000000000000e+00  1.8517914313890449e-01 1.9319235879839908e-01 0.0000000000000000e+00  -3.1807598484670114e+00 1.0385704621023126e+00 0.0000000000000000e+00  3.1575197459881896e+00 -1.0395002578822770e+00 0.0000000000000000e+00  -2.4745449842821992e+00 -3.7190056716511708e+00 0.0000000000000000e+00  1.3272990451767985e+00 2.3682730118831761e+00 0.0000000000000000e+00  7.8642863272634131e-02 1.4207761511841201e-02 0.0000000000000000e+00  -1.0014384049441256e+01 -1.0285974341747187e-04 0.0000000000000000e+00  -1.0002970333246662e+01 -2.1411040321701482e-05 0.0000000000000000e+00  1.0000235038990864e+01 5.1587330367859564e-04 0.0000000000000000e+00  1.0015925825992472e+01 1.7661139547600328e-04 0.0000000000000000e+00  2.0306389138828917e-01 3.6572837292728748e-02 0.0000000000000000e+00  7.2258259451779128e-01 -1.9638632599707364e+00 0.0000000000000000e+00  -8.8442492261988725e-01 2.1808847114157550e+00 0.0000000000000000e+00  6.2620457128971060e-02 -3.9229797732554909e-02 0.0000000000000000e+00  -3.1913873361132645e+00 -1.8296653482812812e+00 0.0000000000000000e+00  -8.0727373018441895e-01 -2.1372611122935021e+00 0.0000000000000000e+00  -4.8386204657582821e-01 3.3193069611209536e-01 0.0000000000000000e+00  2.6547065673234171e+00 4.8662066953621658e-01 0.0000000000000000e+00  -1.5847770826897820e-01 -1.6125015718230473e-01 0.0000000000000000e+00  -6.4861888732424555e-01 -1.1498473533105562e+00 0.0000000000000000e+00  -4.1242964720102371e-01 3.9992762994653335e+00 0.0000000000000000e+00  4.0997111210807219e-01 4.2046611641778124e+00 0.0000000000000000e+00  4.1204004969367342e-01 -4.0048208403289003e+00 0.0000000000000000e+00  4.4448515478300948e-01 -3.2947149202743425e-01 0.0000000000000000e+00  3.6839743551011517e-01 5.0505875353538543e-01 0.0000000000000000e+00  4.7199197483993077e-01 1.0661842800026791e+00 0.0000000000000000e+00  -2.4766347500472019e+00 -3.6882641092138075e+00 0.0000000000000000e+00  8.3824745432039133e-02 1.1247879274981201e-03 0.0000000000000000e+00  -7.9383088667945106e-02 -1.0422568476374200e-01 0.0000000000000000e+00  -5.7363650637254633e-02 -3.8341355629864342e-02 0.0000000000000000e+00  -8.1120425520258568e-02 -4.6510262233030756e-03 0.0000000000000000e+00  6.3656810307931105e-02 -9.0597768790106961e-02 0.0000000000000000e+00  -8.3543585363808320e-02 1.1045227245183915e-01 0.0000000000000000e+00  -2.0659376820956460e-01 2.1008240385664820e-02 0.0000000000000000e+00  -7.3797037279900293e-02 1.3011102192663207e-02 0.0000000000000000e+00  4.4572482838058686e-01 -1.0820190918979162e+00 0.0000000000000000e+00  -4.5746898238749867e-01 1.0836449980615219e+00 0.0000000000000000e+00  6.6795961240988716e-02 -2.5661483567991260e-02 0.0000000000000000e+00  1.7679576180332815e-01 5.6497782625690759e-02 0.0000000000000000e+00  6.9136929708188644e-01 1.7873422883490055e+00 0.0000000000000000e+00  1.2594191984956571e-01 -9.5237865557728410e-02 0.0000000000000000e+00  -5.2976240834262091e-02 4.6917828682215855e-02 0.0000000000000000e+00  2.2308499778824126e-01 -5.5198194992499269e-02 0.0000000000000000e+00  3.9093769597153022e-02 3.4809284815067155e-02 0.0000000000000000e+00  2.4562635093420280e+00 -3.6922027488179729e+00 0.0000000000000000e+00  -2.4746504347835372e+00 3.7431918222331624e+00 0.0000000000000000e+00  -2.1671975996545894e-02 -2.0063427255870861e-02 0.0000000000000000e+00  -2.1222253490232556e-02 2.0996822694128638e-02 0.0000000000000000e+00  2.6185454939540381e-01 -3.7427653365103081e-01 0.0000000000000000e+00  4.7328310747473082e-02 3.6308430729801840e-02 0.0000000000000000e+00  -1.9133773335445889e+00 -2.4547999599018540e+00 0.0000000000000000e+00  2.2471069184253980e-02 -1.9032207150577823e-02 0.0000000000000000e+00  1.8340325360108012e+00 3.0287978675384468e+00 0.0000000000000000e+00  2.4577609894395542e+00 3.6810974274920962e+00 0.0000000000000000e+00  -2.6029164747354161e-01 3.9673040547519045e-01 0.0000000000000000e+00  -6.7397151357197438e-01 1.0889793068936755e+00 0.0000000000000000e+00  2.4865408885055156e+00 3.6728027695414265e+00 0.0000000000000000e+00  -2.4407423117521070e+00 3.6783475917473862e+00 0.0000000000000000e+00  2.4426617853713721e+00 -3.6728200590608484e+00 0.0000000000000000e+00  -1.0933592631584947e+00 -6.6031595172125424e-01 0.0000000000000000e+00  7.4552723327462475e-02 -4.5263949648717544e-01 0.0000000000000000e+00  -2.2510442448841311e-01 -4.4164369327669713e-02 0.0000000000000000e+00  2.4350230437217565e-01 3.9649763489851486e-01 0.0000000000000000e+00  -9.1448980600848634e-02 4.5232037620674392e-01 0.0000000000000000e+00  -4.1809701326536752e-04 -2.8368673921587512e-02 0.0000000000000000e+00  2.5710714551290311e-02 -2.3467266912606587e-04 0.0000000000000000e+00  -3.4272588209318317e-01 -2.5333966954630549e-01 0.0000000000000000e+00  -4.2762523890185087e-03 -5.5397931200451278e-01 0.0000000000000000e+00  -7.1036208166096715e-01 -1.2872328363628343e+00 0.0000000000000000e+00  7.0836869730379903e-01 -1.2697687445023444e+00 0.0000000000000000e+00  1.3358504183941053e-01 1.1545752379285242e-01 0.0000000000000000e+00  6.7452985939336574e-01 -2.6948756627381414e+00 0.0000000000000000e+00  -1.1576648598558012e-01 1.0846059700922993e-01 0.0000000000000000e+00  1.3324383906259412e+00 -4.2342199141038490e+00 0.0000000000000000e+00  1.8153294775601683e+00 -3.3532949881577965e+00 0.0000000000000000e+00  -1.3755348775460459e+00 4.2869524346842924e+00 0.0000000000000000e+00  -6.0057841289851954e-01 2.8380487864197050e+00 0.0000000000000000e+00  3.9714229675280634e-03 2.9957592236665502e+00 0.0000000000000000e+00  6.6683435514521594e-01 2.7441060590376689e+00 0.0000000000000000e+00  -1.8230942855864523e+00 3.3365999370772581e+00 0.0000000000000000e+00  6.1249043857266705e-02 -1.4583051781009705e-04 0.0000000000000000e+00  -5.9480914815346220e-01 -3.2626458354715893e+00 0.0000000000000000e+00  -2.7731066722066255e-01 -1.4037082880641044e-01 0.0000000000000000e+00  5.8548881937478781e-01 1.3599425280598179e+00 0.0000000000000000e+00  8.3521335077959932e-02 -1.1375636634937188e-02 0.0000000000000000e+00  -2.1623296628272510e+00 -5.2045038783276110e-01 0.0000000000000000e+00  -5.0071842780754584e-02 -6.0499691610472216e-02 0.0000000000000000e+00  -1.5757843856393032e+00 -3.6458187839986174e+00 0.0000000000000000e+00  1.8839094248257202e-01 -5.7644611375574459e-02 0.0000000000000000e+00  -7.7499907292998849e-01 1.5389332489467480e+00 0.0000000000000000e+00  -1.7489717265015330e-03 -2.8487051803951103e-02 0.0000000000000000e+00  -2.3694065341767256e-01 -4.6927714907248186e-01 0.0000000000000000e+00  7.7883620920185309e-04 2.8095340288050080e-02 0.0000000000000000e+00  -5.9797382181861848e-02 6.3262782441926652e-02 0.0000000000000000e+00  1.1157959685945885e-02 1.0544483757899270e-02 0.0000000000000000e+00  6.2048636182194118e-02 5.9439341605798460e-02 0.0000000000000000e+00  1.0420387623206548e-01 -1.3432820377072641e-01 0.0000000000000000e+00  1.4364018881647591e+00 4.1930381451950742e+00 0.0000000000000000e+00  6.9995434340395651e-02 2.2913903078592399e-02 0.0000000000000000e+00  -4.5919886536171922e-01 2.4851869560118989e-01 0.0000000000000000e+00  -6.9585826433800657e-01 -1.3021980776392020e-01 0.0000000000000000e+00  4.2891767262995933e-01 2.4889103380548061e-01 0.0000000000000000e+00  7.4099194378175670e-01 1.5765207814830007e-01 0.0000000000000000e+00  1.0811698779618599e+00 5.6775233382628165e-01 0.0000000000000000e+00  -1.1186278897171531e-01 -1.4295231458022736e-02 0.0000000000000000e+00  3.5191513939880424e-02 -4.0537227707406996e-02 0.0000000000000000e+00  4.8098394396599790e-02 2.7984937706696977e-01 0.0000000000000000e+00  6.8645421833978049e-01 -1.3377993070954702e-01 0.0000000000000000e+00  -5.9307445133193075e-02 -4.6629717227002709e+00 0.0000000000000000e+00  -5.8286508573819540e-01 -1.9887730914100227e-01 0.0000000000000000e+00  -1.7994200086078649e+00 4.5206922005333006e-01 0.0000000000000000e+00  2.5243505512499040e+00 9.4825000052049702e-01 0.0000000000000000e+00  -2.5168628971090676e+00 -1.0256258744548650e+00 0.0000000000000000e+00  6.0716937361774644e-02 2.0692461056263649e-04 0.0000000000000000e+00  1.8214172793985826e+00 -4.4688428983729844e-01 0.0000000000000000e+00  -4.9046024117045672e-02 6.7282330658837888e-02 0.0000000000000000e+00  -4.0580169613267825e-02 -1.6511320450597886e-01 0.0000000000000000e+00  -7.5178433622659080e-01 1.3591521347523602e-01 0.0000000000000000e+00  1.0653877157077274e+00 -6.7055140208099895e-01 0.0000000000000000e+00  -1.0665370124253140e+00 6.5718391877532323e-01 0.0000000000000000e+00  -6.9816087656209905e-02 8.3603651896519155e-03 0.0000000000000000e+00  -1.1002195683032150e-01 7.5221156875446135e-03 0.0000000000000000e+00  -1.5543067500987065e-01 9.0629885324391743e-02 0.0000000000000000e+00  3.1646575153412504e-01 7.2737753395355265e-01 0.0000000000000000e+00  1.0362827427175911e-03 -2.5624146716126722e-01 0.0000000000000000e+00  -1.4418816097528006e-01 -2.9927284606968330e-01 0.0000000000000000e+00  1.1545954682726013e-01 -2.7334596857017351e-01 0.0000000000000000e+00  -1.4160542715044133e-01 1.4654307485457019e-01 0.0000000000000000e+00  1.3913452383357983e+00 -2.0003415640384516e+00 0.0000000000000000e+00  -1.9210309682813551e+00 -3.0922599588600006e+00 0.0000000000000000e+00  -1.0079024626144388e+01 -8.9105492143435241e-03 0.0000000000000000e+00  -1.0