<?xml version="1.0"?>
<VTKFile type="UnstructuredGrid"  version="0.1"  >
<UnstructuredGrid>
<Piece  NumberOfPoints="17661" NumberOfCells="34505">
<Points>
<DataArray  type="Float64"  NumberOfComponents="3"  format="ascii">0 1 0  0 0 0  2 0 0  2 1 0  0.2475528258147577 0.5154508497187473 0  0.25 0.5 0  0.2475528258147577 0.4845491502812526 0  0.2404508497187474 0.4706107373853763 0  0.2293892626146237 0.4595491502812526 0  0.2154508497187474 0.4524471741852423 0  0.2 0.45 0  0.1845491502812526 0.4524471741852423 0  0.1706107373853764 0.4595491502812526 0  0.1595491502812526 0.4706107373853763 0  0.1524471741852423 0.4845491502812527 0  0.15 0.5 0  0.1524471741852423 0.5154508497187473 0  0.1595491502812526 0.5293892626146237 0  0.1706107373853764 0.5404508497187474 0  0.1845491502812527 0.5475528258147577 0  0.2 0.55 0  0.2154508497187474 0.5475528258147577 0  0.2293892626146237 0.5404508497187474 0  0.2404508497187474 0.5293892626146237 0  0.4 0.5 0  0.6 0.6 0  0.6 0.4 0  1 0.8 0  1.3 0.6 0  1.3 0.4 0  1 0.2 0  0.7 0.4 0  0.7 0.6 0  1.4 0.6 0  1.6 0.5 0  1.4 0.4 0  1.847552825814758 0.5154508497187473 0  1.85 0.5 0  1.847552825814758 0.4845491502812526 0  1.840450849718748 0.4706107373853763 0  1.829389262614624 0.4595491502812526 0  1.815450849718747 0.4524471741852423 0  1.8 0.45 0  1.784549150281253 0.4524471741852423 0  1.770610737385376 0.4595491502812526 0  1.759549150281253 0.4706107373853763 0  1.752447174185242 0.4845491502812527 0  1.75 0.5 0  1.752447174185242 0.5154508497187473 0  1.759549150281253 0.5293892626146237 0  1.770610737385376 0.5404508497187474 0  1.784549150281253 0.5475528258147577 0  1.8 0.55 0  1.815450849718747 0.5475528258147577 0  1.829389262614624 0.5404508497187474 0  1.840450849718748 0.5293892626146237 0  1 0 0  1 1 0  0 0.5 0  2 0.5 0  0.5 0 0  1.5 0 0  1.5 1 0  0.5 1 0  1.75 0 0  1.75 1 0  0.25 1 0  0.25 0 0  1.25 0 0  0.75 0 0  0.75 1 0  1.25 1 0  0.3725554334277117 0.7642666300283135 0  0.375 0.235 0  1.625 0.235 0  1.625 0.765 0  0 0.25 0  0 0.75 0  2 0.75 0  2 0.25 0  0.625 0.81875 0  0.6499999999999999 0.190625 0  1.375 0.8187500000000001 0  1.375 0.18125 0  1.15 0.7 0  1.15 0.3 0  0.85 0.7 0  1.814791666666667 0.1852083333333333 0  1.811730769230769 0.7382692307692308 0  0.1852083333333333 0.1852083333333334 0  0.1840244119319019 0.815975588068098 0  0.85 0.3 0  2 0.875 0  1.152272727272727 0.1340909090909091 0  0.875 0 0  1.152272727272727 0.8659090909090909 0  0.8477272727272727 0.8659090909090909 0  0.8025975318471337 0.1491341560509555 0  0.5140763145316528 0.7206234211963826 0  0.4901224013758102 0.8594594147419381 0  1.875 1 0  1.48464960456942 0.2795221880492092 0  1.51016818730963 0.1407409912480207 0  1.48464960456942 0.7204778119507909 0  1.517998509539161 0.858828994435724 0  0.5218371613039796 0.2706765982218459 0  0.375 1 0  1.625 0 0  0 0.625 0  0.1279662324777819 0.3186873708662855 0  2 0.375 0  2 0.625 0  1.625 1 0  0.4762884050256251 0.1381321303327793 0  1.66715200204435 0.3671520020443497 0  0.3411194216097047 0.3718755262632354 0  1.66715200204435 0.6328479979556505 0  0.2293375031488215 0.6852297049426554 0  1.8125 0.8765958288588708 0  1.828700169805353 0.318794259420021 0  0.375 0 0  0.3030849358974359 0.1225080128205128 0  1.696915064102564 0.1225080128205128 0  0.3125 0.8827687679325231 0  0.4100587955541826 0.6346030229804038 0  2 0.125 0  1.875 0 0  0.125 0 0  0 0.125 0  0.125 1 0  0 0.875 0  0.5 0.45 0  0.5 0.55 0  1.278149224806201 0.7297238372093023 0  1.250775615004007 0.2184103757970662 0  0.7492243849959929 0.7815896242029338 0  1.125 1 0  1.375 0 0  1.375 1 0  0.625 0 0  0.625 1 0  1.125 0 0  0.875 1 0  0 0.375 0  1.5 0.55 0  1.5 0.45 0  0.2480454145864052 0.2911694084917106 0  0.1061636102285989 0.6875 0  0.9172520139947967 0.112654991253252 0  1.682026291298303 0.8825000000000001 0  0.6499999999999999 0.7050892857142856 0  1.35 0.2949107142857143 0  0.7749999999999999 0.35 0  1.263701301081917 0.8426362379684855 0  1.901952516101588 0.8069329477617702 0  0.6 0.5 0  0.7 0.5 0  1.3 0.5 0  1.4 0.5 0  1.727600713014309 0.2750723856898529 0  1.3125 0.09062500000000001 0  0.7142592324977534 0.8909203568981011 0  1.883829473776445 0.6450078637524899 0  0.6830874463519312 0.2933811695278971 0  0.7070263916632118 0.0989984759544718 0  0.4316959974368003 0.3216648344694547 0  1.380950802730399 0.7150815420254574 0  0.3065181328757786 0.6128678607000935 0  0.5818077415991646 0.1026164027410931 0  0.9375 0.9174691833590138 0  1.047116689280869 0.9 0  1.0625 0.08253081664098619 0  1.575831396629752 0.676518355006118 0  1.55888866349099 0.3587674601363565 0  1.4375 0.9202987442070407 0  0.925 0.25 0  1.898145355082274 0.2440468520852883 0  0.2101839610042735 0.09000834668803417 0  0.1061033326390469 0.1135790505786181 0  0.09544599273732228 0.2257275858847144 0  1.8125 0.08207278777652795 0  0.217966377040559 0.9076457089970479 0  0.2738344022609309 0.7738762677729314 0  0.0814316252519587 0.8125 0  1.4375 0.07525327865218089 0  0.5625 0.9249899135948225 0  1.904586244829915 0.1464615224468097 0  1.744016930730878 0.8078112236212321 0  1.336236868906671 0.909375 0  1.776885324280126 0.6459403188375784 0  0.1202836912147299 0.9022840281039533 0  1.708781716491081 0.7189249933309093 0  1.904101394003999 0.3958986059960003 0  1.225 0.35 0  0.7749999999999999 0.6499999999999999 0  0.07245832196556974 0.5649857308297664 0  0.07245832196556991 0.4350142691702333 0  1.600155803939286 0.09694604053970658 0  1.906498832379319 0.9050341767410571 0  0.7395198302319537 0.2185048068670455 0  1.929319135268518 0.5624131848615803 0  1.192971893151267 0.7823814560091357 0  1.075 0.75 0  0.4061659433429421 0.9081082988297638 0  0.5132215234690947 0.360618740666639 0  1.225 0.6499999999999999 0  0.925 0.75 0  1.075 0.25 0  0.5512900568072264 0.1864565208394959 0  1.581167620911809 0.5873352418236175 0  0.2885057759523771 0.2110616359185661 0  1.593994717940027 0.9123639132241911 0  0.4212267295746058 0.4095812569963867 0  1.9375 0 0  2 0.0625 0  0.3881495246442013 0.1473603292365287 0  0.4375 0 0  0.5203951145825836 0.634209770834833 0  1.479544041656137 0.6340880833122748 0  1.755651787083367 0.3687822938381424 0  1.224765949825823 0.08426701736150129 0  0.2206585476125226 0.3695670637204487 0  1.07506901412899 0.1645795091318676 0  1.151136363636364 0.2170454545454546 0  0.9249309858710097 0.8354204908681324 0  0.7900036951255988 0.9264973001454673 0  1.1875 1 0  1.221344379396217 0.918226669561771 0  0.8488636363636364 0.7829545454545455 0  2 0.3125 0  0.8425886855399499 0.07640702899038848 0  0.3451973255788813 0.6860982230385505 0  1.477176894376523 0.3706462112469538 0  1.892277940918713 0.7260390202279857 0  0.6053223777592734 0.2617163340157894 0  0.1366572879283138 0.6132172689980417 0  0.8767669976572787 0.183829901696625 0  1.734312916462054 0.194354217051338 0  0.6358370118041781 0.8966293729975513 0  0.0625 0 0  0.4254296797826017 0.07790150880037369 0  0.0625 1 0  0.325 0.480201944959433 0  1.92581980103314 0.4721133056178217 0  1.675 0.480201944959433 0  1.68664354441175 0.5573253462218921 0  1.082179034295607 0.8289260983483835 0  1.904764711899212 0.3198299058827855 0  0.4168432122069987 0.8297658089581273 0  0.4566447213929462 0.2189812831651196 0  1.591685173164597 0.8349342830268984 0  1.533749638400075 0.7818373685814323 0  1.455696077414499 0.8059760010402454 0  0.1686918926316089 0.7374366337613715 0  1.90625 0.06990635764468446 0  1.620885539353526 0.4271612268364069 0  1.542504721969586 0.2184236464568206 0  0.9949252774665426 0.1219386785908539 0  0.4338464485831625 0.7117387264759969 0  0.5863598564893037 0.7506712216607603 0  1.416648798464286 0.327639446233766 0  0.5838428563156408 0.6721266313560732 0  2 0.6875 0  1.412978141476274 0.249183169093648 0  0.1442761096606068 0.3906357074122901 0  0.3464733991224566 0.550813757819126 0  0.4672496122382359 0.7767891610807409 0  1.449528495155154 0.1841671848770897 0  0.5505824438750014 0.8159828333211079 0  0.06097042075975112 0.2899564099443032 0  0.162441804455353 0.2544585468066967 0  0.2515140598341737 0.8431055049241685 0  1.508091341603097 0.9292987433934674 0  0.3125 0 0  0.3530550570442522 0.06947972340498598 0  1.661411492502874 0.06098752102514014 0  0.2848293132020425 0.4151706867979574 0  1.302321766598192 0.1645086954495226 0  0.8156600088457951 0.2309188807474504 0  0.7 0.45 0  0.6 0.55 0  0.55 0.575 0  1.4 0.45 0  1.45 0.425 0  1.4 0.55 0  1.45 0.575 0  1.571812968831181 0.2861304084233215 0  1.530671578227107 0.06852186336978081 0  0.3630747334266106 0.3046791235976137 0  0.6875 1 0  0.4755617942555476 0.9311001820263514 0  2 0.1875 0  1.35 0.6508409658867128 0  1.595333463987267 0.1690763300181999 0  0.5132280109697771 0.07337192148753263 0  0.07018707600830057 0.3609417193972463 0  0.9375 0 0  0 0.0625 0  0 0.9375 0  1.325515777996516 0.2299455714704491 0  0 0.1875 0  1.660060967657433 0.2966152714601534 0  1.642615142985795 0.6978201027615898 0  0.5794576841249596 0.3299650910486734 0  0.2184968267666885 0.6167843680148617 0  1.813188555186561 0.8074265619392141 0  1.74918685017469 0.9220590235917012 0  1.8125 1 0  1.6875 1 0  1.84538439786796 0.9374701477032144 0  0.985829156030089 0.8680785867537879 0  1.71115653260446 0.42147410231474 0  0.7745858315663394 0.08637237667517719 0  0.8581308326208463 0.9336120648598586 0  1.114299681563871 0.9280047118126826 0  1.156995061722164 0.06331148205342724 0  1.768286804887032 0.1346484358995713 0  1.219879536571258 0.1548077115155514 0  1.273737374357294 0.2912273573052739 0  0.7262626256427063 0.708772642694726 0  0.7683710923653957 0.2812543740322987 0  1.74263903925824 0.06956570012770677 0  0.7757289136414349 0.8503225431286444 0  0.6499999999999999 0.3532805130518777 0  1.0625 1 0  0.45 0.525 0  0.45 0.475 0  0.9626187472125531 0.06266183112941157 0  1.830748432489386 0.2510639858274513 0  1.820709862628178 0.3854853370689849 0  0.5625 0 0  1.667964881073882 0.1832337384052585 0  0.28125 0.05921414769878126 0  0.2467253217
[...]
<PointData  Vectors="f_283"> 
<DataArray  type="Float64"  Name="f_283"  NumberOfComponents="3" format="ascii">-2.5065817941419495e-09 7.9962124273439225e-10 0.0000000000000000e+00  3.6967810572282064e-08 3.7700536081644208e-08 0.0000000000000000e+00  4.0451307341139806e-03 -3.5780719334509718e-03 0.0000000000000000e+00  -1.9851359473695242e-02 -1.9593966109847771e-02 0.0000000000000000e+00  -4.5565893671181965e-06 -1.4522442975818076e-06 0.0000000000000000e+00  -4.5533969423631201e-06 -3.1621553668795692e-08 0.0000000000000000e+00  -4.5317358752888746e-06 1.3542639275709169e-06 0.0000000000000000e+00  -3.9513078068727526e-06 2.8871307809255865e-06 0.0000000000000000e+00  -2.8756101448611149e-06 3.8321655694108468e-06 0.0000000000000000e+00  -1.4932177601962743e-06 4.3395641212739445e-06 0.0000000000000000e+00  -6.0644099182459538e-09 3.6138910510137046e-06 0.0000000000000000e+00  7.1966457088278111e-07 2.6198638355843040e-06 0.0000000000000000e+00  1.1097267484480902e-06 1.6754491244186526e-06 0.0000000000000000e+00  1.1454687481567479e-06 7.8528020601160806e-07 0.0000000000000000e+00  8.3798061659219266e-07 2.5569968104421359e-07 0.0000000000000000e+00  8.1391255981104165e-07 -2.2762297298925872e-08 0.0000000000000000e+00  8.6335296656291398e-07 -2.3094019001120821e-07 0.0000000000000000e+00  1.0722326844584128e-06 -7.8609989152776125e-07 0.0000000000000000e+00  1.0452816487175592e-06 -1.6030495700499400e-06 0.0000000000000000e+00  7.3158531960159108e-07 -2.6377305334654944e-06 0.0000000000000000e+00  1.9884565833664065e-07 -3.5854180828337190e-06 0.0000000000000000e+00  -1.2808576173032767e-06 -4.2077636530504848e-06 0.0000000000000000e+00  -3.0649445943513669e-06 -3.9535172609931468e-06 0.0000000000000000e+00  -3.9412837409721877e-06 -2.8986578015872975e-06 0.0000000000000000e+00  6.3064269511016621e-06 -5.2131259477066861e-08 0.0000000000000000e+00  -1.6740535063902604e-05 -3.8213612621771957e-05 0.0000000000000000e+00  -1.6075899213400038e-05 3.4651946868740110e-05 0.0000000000000000e+00  -1.3477010988686262e-03 -1.2177163499179603e-02 0.0000000000000000e+00  -1.5430701826319762e-01 -1.0740188550056766e-01 0.0000000000000000e+00  -1.5349029663344163e-01 8.7452376546527669e-02 0.0000000000000000e+00  -1.6492227997526568e-03 1.1955727208338341e-02 0.0000000000000000e+00  3.3422226255489915e-05 2.3801104431773482e-05 0.0000000000000000e+00  3.4265946171379647e-05 -2.1719913115398126e-05 0.0000000000000000e+00  8.6387833692667088e-02 -4.5749634569675923e-01 0.0000000000000000e+00  -6.9164972930859649e+00 -2.8723938835593802e-03 0.0000000000000000e+00  1.3255164753174689e-01 5.7430702344277995e-01 0.0000000000000000e+00  1.1414508655777789e+01 3.4459439195635033e+00 0.0000000000000000e+00  1.1562633064214859e+01 1.0446404498106782e-01 0.0000000000000000e+00  1.1106060191875681e+01 -3.5237681487001353e+00 0.0000000000000000e+00  9.1629157201254667e+00 -6.5466277870616327e+00 0.0000000000000000e+00  6.3336334892234820e+00 -8.6520971720824846e+00 0.0000000000000000e+00  3.2022371614116807e+00 -1.0064140798043036e+01 0.0000000000000000e+00  -2.7742985981402679e-02 -9.9652090281328594e+00 0.0000000000000000e+00  -3.0265211626932609e+00 -9.4095276144226343e+00 0.0000000000000000e+00  -5.9302163010522557e+00 -8.0700076812387902e+00 0.0000000000000000e+00  -8.1054772651263463e+00 -6.2439877064799392e+00 0.0000000000000000e+00  -9.8593131864304606e+00 -2.8256863178127700e+00 0.0000000000000000e+00  -1.0450895987610389e+01 -3.1154701305004060e-02 0.0000000000000000e+00  -9.7762808441774656e+00 3.2289095382254285e+00 0.0000000000000000e+00  -8.2624619979507745e+00 5.8415847707974828e+00 0.0000000000000000e+00  -5.8722219972167533e+00 8.1492978318492213e+00 0.0000000000000000e+00  -3.3148632068279662e+00 9.5292623883367025e+00 0.0000000000000000e+00  -1.0926713359394638e-01 1.0248347287958399e+01 0.0000000000000000e+00  3.4848055873595816e+00 1.0095430247086103e+01 0.0000000000000000e+00  6.3294484806982938e+00 9.1165620122212072e+00 0.0000000000000000e+00  9.5535532082944208e+00 6.9592348586942467e+00 0.0000000000000000e+00  -1.6914024895763037e-05 -5.1641545066123829e-03 0.0000000000000000e+00  4.7211608141622461e-05 5.4174549579666898e-03 0.0000000000000000e+00  -3.5584234789343651e-07 6.3623890210512382e-10 0.0000000000000000e+00  4.8792167681059295e+00 -4.4194019917926210e-03 0.0000000000000000e+00  1.9674434827048480e-07 -2.1926402025215266e-05 0.0000000000000000e+00  -4.3329107327525008e-03 -3.3858906760717183e-01 0.0000000000000000e+00  7.7007074370057007e-04 3.3887287202240923e-01 0.0000000000000000e+00  3.2330353538009047e-07 2.1716449727740196e-05 0.0000000000000000e+00  -1.4421691878637791e-03 -6.2772500352660277e-01 0.0000000000000000e+00  -2.0077236349082766e-05 6.2672305150162655e-01 0.0000000000000000e+00  5.6663399045180655e-09 3.1862998229002917e-06 0.0000000000000000e+00  -3.1771363334574878e-08 -3.1852497619964597e-06 0.0000000000000000e+00  -3.3500588388625112e-04 -6.8259639983559758e-02 0.0000000000000000e+00  1.1920615234151205e-06 -2.2109705923016742e-04 0.0000000000000000e+00  4.3553697747703873e-07 2.4107301348379393e-04 0.0000000000000000e+00  1.9696012356772827e-04 6.7677803404028375e-02 0.0000000000000000e+00  -7.0222343173290454e-06 -1.0062919511974901e-06 0.0000000000000000e+00  -7.0661132864801628e-06 9.3992914851186630e-07 0.0000000000000000e+00  -5.9746788529133765e-01 -7.0866516361638499e-01 0.0000000000000000e+00  -6.0890938085916002e-01 7.0339957869945136e-01 0.0000000000000000e+00  -1.1978693805107519e-06 -8.0276963302510085e-10 0.0000000000000000e+00  -1.1977680026776486e-06 1.1645144607561965e-10 0.0000000000000000e+00  1.4815443570657667e+00 -1.4780576507894530e-02 0.0000000000000000e+00  1.4659697345423441e+00 6.2522506670398530e-03 0.0000000000000000e+00  -5.3542771666276251e-05 -5.4608704336692427e-06 0.0000000000000000e+00  -6.4504573872769337e-05 1.4834233804851989e-05 0.0000000000000000e+00  -1.9045762079956885e-01 8.1639992293156050e-02 0.0000000000000000e+00  -1.8814115573184681e-01 -7.8209738146001823e-02 0.0000000000000000e+00  -3.3905493687858841e-02 -5.1379343369778306e-02 0.0000000000000000e+00  -3.3779647761330134e-02 5.0445438495317664e-02 0.0000000000000000e+00  1.6988640450483212e-04 -2.5009988948816140e-04 0.0000000000000000e+00  3.1930874273619325e-01 -9.7638323674079752e-01 0.0000000000000000e+00  4.1926197241367108e-01 1.5483061215773124e+00 0.0000000000000000e+00  -2.1241392875812336e-06 -5.9290435392004410e-07 0.0000000000000000e+00  -2.1149141961998203e-06 5.9973506414564095e-07 0.0000000000000000e+00  1.5600548167667716e-04 2.3651454992120618e-04 0.0000000000000000e+00  5.2570645493084189e-01 -3.4789806370089855e-03 0.0000000000000000e+00  -3.3350299618218650e-02 -1.0313469154484519e-02 0.0000000000000000e+00  8.0826944192349474e-06 -1.0767445043955587e-03 0.0000000000000000e+00  -3.2708958077203816e-02 1.0923061094111635e-02 0.0000000000000000e+00  -6.3936665693041636e-04 -7.4437587865091261e-05 0.0000000000000000e+00  -3.4428216591959464e-04 7.1996332930077868e-05 0.0000000000000000e+00  -1.4448609469798920e-05 -1.1242799137759881e-05 0.0000000000000000e+00  -1.7153730487985842e-05 7.6805325388646305e-06 0.0000000000000000e+00  -7.9802707659646873e-04 4.3701467453873877e-01 0.0000000000000000e+00  -5.2859817054446179e-01 -2.8263396290095253e-02 0.0000000000000000e+00  -2.5648173324413354e-01 -3.2279318967082621e-01 0.0000000000000000e+00  -5.3870909222236918e-01 2.1324680616956217e-02 0.0000000000000000e+00  -2.6016563948696314e-01 3.3996905598720151e-01 0.0000000000000000e+00  -1.5963968386087827e-05 1.1708157475756034e-05 0.0000000000000000e+00  -1.4627365301523850e-08 8.0902581836159665e-06 0.0000000000000000e+00  8.3443242981578851e-04 -5.4410424215702957e-01 0.0000000000000000e+00  -7.8495395410473461e-07 -5.1395438077393320e-09 0.0000000000000000e+00  -1.3815002097318297e-06 5.9757784596229857e-07 0.0000000000000000e+00  3.2424984254538236e+00 1.5630639094347584e-02 0.0000000000000000e+00  3.2722330216034310e+00 6.4874474817495947e-02 0.0000000000000000e+00  6.3544120532329021e-04 5.4089681850942872e-01 0.0000000000000000e+00  -1.5022110220723559e-05 -7.5914960361391960e-06 0.0000000000000000e+00  -2.0169607206017046e+00 -1.2251165564197610e+00 0.0000000000000000e+00  -2.6352214923058736e-06 3.4635521805344167e-06 0.0000000000000000e+00  -2.0126291211915324e+00 1.2513071071935569e+00 0.0000000000000000e+00  -2.4611081674503777e-06 -1.2674136096275219e-06 0.0000000000000000e+00  1.9246584214298251e-01 7.3789161483506738e-01 0.0000000000000000e+00  8.4701365027650910e-01 -2.2846681999932361e+00 0.0000000000000000e+00  9.8913268443985210e-08 -8.1830274639881838e-06 0.0000000000000000e+00  -3.6175949072187316e-06 -2.9679323485850652e-06 0.0000000000000000e+00  -1.0559026933846309e-01 -7.3400129081970622e-01 0.0000000000000000e+00  -3.6867902487658514e-06 3.2988464884405450e-06 0.0000000000000000e+00  -3.0749155601447250e-06 -6.1511060206843108e-06 0.0000000000000000e+00  5.4430247023693978e-01 2.2487742291276980e-03 0.0000000000000000e+00  -4.1469556139218125e-04 -4.3331763372967158e-01 0.0000000000000000e+00  1.4799516923804427e-09 -1.1294575566901999e-06 0.0000000000000000e+00  -8.9486127894513454e-07 -5.1142485048561052e-10 0.0000000000000000e+00  -6.1626963637177469e-09 1.1387682136312138e-06 0.0000000000000000e+00  -9.0430335321890979e-07 -1.5835509842438816e-09 0.0000000000000000e+00  4.9802795809662126e-06 9.8416982443022105e-06 0.0000000000000000e+00  4.8165000735037857e-06 -9.5843091028677760e-06 0.0000000000000000e+00  -1.1676754093267665e-01 -4.6717788235208384e-02 0.0000000000000000e+00  -9.3477998794616657e-02 9.5821633184675556e-03 0.0000000000000000e+00  -1.1263033715869990e-04 -1.0831019928898227e-04 0.0000000000000000e+00  -6.0197215769002810e-05 2.2108268559895249e-02 0.0000000000000000e+00  -3.7876586917542655e-04 -1.6757038729856655e-01 0.0000000000000000e+00  -1.8566743154554107e-04 1.6742377420916990e-01 0.0000000000000000e+00  4.6105464367954443e-07 -6.2606236600623848e-05 0.0000000000000000e+00  1.0318537238552587e-07 6.3344243460543604e-05 0.0000000000000000e+00  2.0009819056188534e-04 -2.2264596750810699e-02 0.0000000000000000e+00  -3.5428987230177951e-07 1.0526814350076505e-03 0.0000000000000000e+00  -7.7555391487460222e-07 -4.4506599349809259e-09 0.0000000000000000e+00  -5.9375249256526541e-01 -1.2060377076852793e+00 0.0000000000000000e+00  -5.8664152136125958e-01 1.1775885526936343e+00 0.0000000000000000e+00  -2.8979262571871673e-06 1.0308498651169906e-06 0.0000000000000000e+00  -1.3051433201621605e-06 -4.4168522552792358e-07 0.0000000000000000e+00  -1.7223833574592452e-03 -1.4286074879570486e-04 0.0000000000000000e+00  -1.2369196332794213e-01 7.0122363475081073e-01 0.0000000000000000e+00  -2.2509174329943921e-05 -4.3117236276728259e-05 0.0000000000000000e+00  -1.9115532346356340e-01 8.6800864352007318e-02 0.0000000000000000e+00  5.7568101843223465e-05 8.5390772718064631e-05 0.0000000000000000e+00  -8.3178154356540621e-02 3.2181181063651955e-02 0.0000000000000000e+00  7.6098110392001328e-01 6.6390080196381995e-01 0.0000000000000000e+00  -2.3637499642264431e-06 -8.0546524798050852e-09 0.0000000000000000e+00  2.3460280558731519e-06 2.9113942575124059e-09 0.0000000000000000e+00  -1.4912373700254489e-02 -2.8520422110834225e-04 0.0000000000000000e+00  1.5725358313783973e-02 6.4485606143473322e-05 0.0000000000000000e+00  -4.3924365552007649e-01 -1.4923423899029649e+00 0.0000000000000000e+00  -7.0752482057705665e-02 -9.2799509353529652e-02 0.0000000000000000e+00  -1.3116984358088900e-04 6.1553786286610337e-05 0.0000000000000000e+00  2.3347881880677086e+00 2.1885884667963325e+00 0.0000000000000000e+00  -2.1931994949291165e-05 5.9373304929586724e-05 0.0000000000000000e+00  -1.1415869687013503e-04 -6.9951827934333988e-05 0.0000000000000000e+00  -5.9860301539977391e-06 6.6872014114885299e-06 0.0000000000000000e+00  -2.4950631161080705e-01 -7.9564899678547518e-02 0.0000000000000000e+00  -2.3309505007058586e-06 -2.7662140387174807e-06 0.0000000000000000e+00  -3.2522042112600507e-05 -2.4811390045850172e-05 0.0000000000000000e+00  -2.1601987481892865e-03 1.0897999845283571e-03 0.0000000000000000e+00  -9.7050784728845169e-03 3.9523422352994659e-03 0.0000000000000000e+00  -1.0068501964772726e-02 -7.1082213133286639e-03 0.0000000000000000e+00  -1.1366420782833062e+00 2.2270132353702290e-01 0.0000000000000000e+00  -1.2515979561769399e+00 1.2698319000933356e-01 0.0000000000000000e+00  -1.1210747857966409e-01 2.2942476242127516e-01 0.0000000000000000e+00  6.0201309887550889e-04 8.6317339221127513e-04 0.0000000000000000e+00  1.0782554215693654e+00 -9.4602503401440763e-01 0.0000000000000000e+00  -1.5469131370513637e-06 -1.8964552260915644e-06 0.0000000000000000e+00  -1.0539587198297482e-06 -6.8001190939435933e-07 0.0000000000000000e+00  -1.4388314143618393e-06 -5.0409050088588907e-08 0.0000000000000000e+00  1.2814252702055054e-01 -6.3717159246724142e-01 0.0000000000000000e+00  -1.6369462385238646e-06 2.0124097334012980e-06 0.0000000000000000e+00  -3.7015854603606188e-06 2.6854992794375459e-08 0.0000000000000000e+00  -1.3230265692222398e-06 2.1048340609932569e-07 0.0000000000000000e+00  -1.0594179060253293e-01 -2.2998087677877938e-01 0.0000000000000000e+00  -2.2313051084608797e-05 2.8266646467898792e-05 0.0000000000000000e+00  5.3671008386666719e-01 -5.1156919182133331e-01 0.0000000000000000e+00  -5.4549895923354789e-02 1.0274352393765980e+00 0.0000000000000000e+00  -7.9537143467615326e-02 1.1052637014850038e-01 0.0000000000000000e+00  -3.1906030818874592e-01 3.1081295938635534e+00 0.0000000000000000e+00  -9.8349593247582737e-07 8.4248439375129155e-07 0.0000000000000000e+00  -6.3278582354526003e-01 1.4378219278541193e+00 0.0000000000000000e+00  3.5657331617553902e+00 -2.1044966990499789e+00 0.0000000000000000e+00  -6.2435992202177742e-02 9.4637915133520101e-02 0.0000000000000000e+00  5.7009191384528901e-05 -8.3884332439410864e-05 0.0000000000000000e+00  -3.6763196769279439e-07 -3.4484561729105614e-07 0.0000000000000000e+00  -3.5957112812164976e-07 3.6012335547756768e-07 0.0000000000000000e+00  -1.6953295502032634e-01 -5.2481532198375036e-01 0.0000000000000000e+00  3.1959069400218099e-01 4.0492581900657271e-01 0.0000000000000000e+00  -1.0378528316700439e-04 9.8065538292916863e-05 0.0000000000000000e+00  4.6936933141967430e+00 1.2846000646190321e+00 0.0000000000000000e+00  -5.9108869875521455e-02 -1.5123944292282801e-02 0.0000000000000000e+00  -1.5663121468083813e-02 -2.3555590079224892e-02 0.0000000000000000e+00  -6.5910167244153115e-06 7.7367183352135676e-06 0.0000000000000000e+00  -3.8148568336889157e-06 1.5283462883102585e-05 0.0000000000000000e+00  -6.4028644031877816e-02 -9.3363207534280387e-02 0.0000000000000000e+00  5.5052165003173254e-04 -8.5041335026520470e-04 0.0000000000000000e+00  -1.6007523943261236e-02 2.3763048545539532e-02 0.0000000000000000e+00  -2.8818277486714146e-05 -4.7600645572892070e-08 0.0000000000000000e+00  -1.9132158314176149e+00 -6.4659260246724071e-01 0.0000000000000000e+00  -4.1170391691093924e-06 -3.7571973709349436e-07 0.0000000000000000e+00  -1.5019782596756157e-01 5.1247052612470356e-01 0.0000000000000000e+00  -6.1251882702652819e-07 6.5629814278081035e-06 0.0000000000000000e+00  -3.2773284963879897e-03 -2.3507323789715670e-01 0.0000000000000000e+00  2.3530386160293493e-01 -2.6268810923139895e-03 0.0000000000000000e+00  -7.4977119452739557e-06 -3.8472232798714627e-06 0.0000000000000000e+00  -1.2890788475855012e-07 -1.2891879139947035e-05 0.0000000000000000e+00  -3.3884329167572123e-06 -1.6675646871208598e-05 0.0000000000000000e+00  -6.3470953206219627e-01 -4.0090694642767055e-01 0.0000000000000000e+00  -1.0449024792275587e+00 -3.2972495939113879e+00 0.0000000000000000e+00  -3.7362324980628775e-02 -4.6314957760714870e-02 0.0000000000000000e+00  -1.8515628411847751e-06 1.8899741113574326e-06 0.0000000000000000e+00  -1.8431787265933652e-02 4.3345117785268030e-03 0.0000000000000000e+00  -4.1281725394237849e-02 1.6154773736193666e-02 0.0000000000000000e+00  -1.2251730815965799e-03 -1.3078383751473767e-03 0.0000000000000000e+00  -2.5880495589013431e-04 2.1910518340782296e-04 0.0000000000000000e+00  -1.8691324104658848e-04 4.0380192588750197e-02 0.0000000000000000e+00  -3.6098732758121976e-02 4.3280504581788323e-02 0.0000000000000000e+00  -1.7019003237273470e-04 -4.3117468879138172e-04 0.0000000000000000e+00  2.2175008277246548e+00 1.3025752139076436e-02 0.0000000000000000e+00  -5.3189667696767790e-04 -3.7103795209308504e-04 0.0000000000000000e+00  -4.2048618157756707e-06 -2.9165960456746301e-06 0.0000000000000000e+00  -6.3769068625728320e-01 4.4863341864385536e-01 0.0000000000000000e+00  1.3136012188238289e+00 1.2027828563370677e+00 0.0000000000000000e+00  -2.8175611617576125e-05 2.4831268124927724e-05 0.0000000000000000e+00  -8.3209675935884989e-07 -1.0454958931156899e-06 0.0000000000000000e+00  -4.8472326485215984e-04 6.2152556602754325e-04 0.0000000000000000e+00  -1.0355112937965710e-01 -1.0221853563154808e+00 0.0000000000000000e+00  -5.5568728200875881e-05 3.7239438375451445e-05 0.0000000000000000e+00  -3.2141583363523341e-08 -5.2065344926236227e-07 0.0000000000000000e+00  -6.4870233569595489e-06 -9.6752100812682009e-06 0.0000000000000000e+00  1.4343136532892131e-08 5.1409821379161344e-07 0.0000000000000000e+00  -8.4457682356805283e-07 9.9019609536202758e-07 0.0000000000000000e+00  5.5300410516647860e+00 -7.7213931939427571e-01 0.0000000000000000e+00  -5.0476047730712112e+00 -3.7546120855986803e-01 0.0000000000000000e+00  -4.1850839342257959e+00 1.4696518352164940e+00 0.0000000000000000e+00  -1.9921289933329669e-02 -5.5937803361150720e-03 0.0000000000000000e+00  1.9924261591724777e+00 -1.4642371376946635e+00 0.0000000000000000e+00  -9.9735713078318167e-06 2.7798520655234739e-06 0.0000000000000000e+00  -1.3062967362450736e-05 1.6937067760101809e-06 0.0000000000000000e+00  -3.4183490698660984e-01 5.2591449539678992e-01 0.0000000000000000e+00  -4.7766248339292405e-01 3.1634604274195954e-01 0.0000000000000000e+00  -3.0628908245431136e-01 1.6313176523239950e-01 0.0000000000000000e+00  -1.9497867087929088e-06 -3.3917794678495397e-07 0.0000000000000000e+00  2.2488528813099753e-01 -3.7905563261584407e-01 0.0000000000000000e+00  -2.8880809698325578e+00 2.5515463644494490e-01 0.0000000000000000e+00  -4.9853399354519495e-01 -3.4418106044564134e-01 0.0000000000000000e+00  -5.7253622713590666e-03 3.9647367970329489e-04 0.0000000000000000e+00  -8.2395595151281854e-06 -5.5646534747977931e-06 0.0000000000000000e+00  -2.9036204537309525e-05 -1.8643144922486874e-05 0.0000000000000000e+00  -3.2993376105307548e-01 2.0215066533800083e-01 0.0000000000000000e+00  -1.2281487154719470e-05 -2.6202290403568808e-05 0.0000000000000000e+00  2.2547120441443007e+00 -1.3183919410395099e-02 0.0000000000000000e+00  -2.9796302884776904e-01 -7.3269815366740175e-03 0.0000000000000000e+00  -8.0950545700791313e-07 1.1559512322795522e-06 0.0000000000000000e+00  -4.7038838882575987e-07 -2.5624291449680982e-06 0.0000000000000000e+00  -1.3958931302202571e-05 -2.3876918798645956e-06 0.0000000000000000e+00  -2.7909930680466394e-01 -1.6682247853555265e-01 0.0000000000000000e+00  -2.8573952556683951e-05 7.6811023014150363e-08 0.0000000000000000e+00  -1.2157320248163617e-06 1.6099310328989435e-07 0.0000000000000000e+00  -1.9244987407366892e-06 2.1170080914838855e-07 0.0000000000000000e+00  -2.9819149013684555e-06 1.4750629215780734e-06 0.0000000000000000e+00  -1.2038759597870966e-01 3.4384669383178201e-01 0.0000000000000000e+00  2.3247583743797743e-08 -5.1420443068282081e-06 0.0000000000000000e+00  -3.3731996378083295e-06 -5.9082941352952819e-06 0.0000000000000000e+00  -6.7793628131699965e-02 -6.1155097722395813e-01 0.0000000000000000e+00  -2.1343356739868914e-06 2.4421215328558853e-06 0.0000000000000000e+00  -1.1038374724249166e-01 -4.3882844754710305e-02 0.0000000000000000e+00  -1.0217669348365617e-04 2.7107547005668115e-04 0.0000000000000000e+00  5.8938393832431709e