<?xml version="1.0"?>
<VTKFile type="UnstructuredGrid"  version="0.1"  >
<UnstructuredGrid>
<Piece  NumberOfPoints="17661" NumberOfCells="34505">
<Points>
<DataArray  type="Float64"  NumberOfComponents="3"  format="ascii">0 1 0  0 0 0  2 0 0  2 1 0  0.2475528258147577 0.5154508497187473 0  0.25 0.5 0  0.2475528258147577 0.4845491502812526 0  0.2404508497187474 0.4706107373853763 0  0.2293892626146237 0.4595491502812526 0  0.2154508497187474 0.4524471741852423 0  0.2 0.45 0  0.1845491502812526 0.4524471741852423 0  0.1706107373853764 0.4595491502812526 0  0.1595491502812526 0.4706107373853763 0  0.1524471741852423 0.4845491502812527 0  0.15 0.5 0  0.1524471741852423 0.5154508497187473 0  0.1595491502812526 0.5293892626146237 0  0.1706107373853764 0.5404508497187474 0  0.1845491502812527 0.5475528258147577 0  0.2 0.55 0  0.2154508497187474 0.5475528258147577 0  0.2293892626146237 0.5404508497187474 0  0.2404508497187474 0.5293892626146237 0  0.4 0.5 0  0.6 0.6 0  0.6 0.4 0  1 0.8 0  1.3 0.6 0  1.3 0.4 0  1 0.2 0  0.7 0.4 0  0.7 0.6 0  1.4 0.6 0  1.6 0.5 0  1.4 0.4 0  1.847552825814758 0.5154508497187473 0  1.85 0.5 0  1.847552825814758 0.4845491502812526 0  1.840450849718748 0.4706107373853763 0  1.829389262614624 0.4595491502812526 0  1.815450849718747 0.4524471741852423 0  1.8 0.45 0  1.784549150281253 0.4524471741852423 0  1.770610737385376 0.4595491502812526 0  1.759549150281253 0.4706107373853763 0  1.752447174185242 0.4845491502812527 0  1.75 0.5 0  1.752447174185242 0.5154508497187473 0  1.759549150281253 0.5293892626146237 0  1.770610737385376 0.5404508497187474 0  1.784549150281253 0.5475528258147577 0  1.8 0.55 0  1.815450849718747 0.5475528258147577 0  1.829389262614624 0.5404508497187474 0  1.840450849718748 0.5293892626146237 0  1 0 0  1 1 0  0 0.5 0  2 0.5 0  0.5 0 0  1.5 0 0  1.5 1 0  0.5 1 0  1.75 0 0  1.75 1 0  0.25 1 0  0.25 0 0  1.25 0 0  0.75 0 0  0.75 1 0  1.25 1 0  0.3725554334277117 0.7642666300283135 0  0.375 0.235 0  1.625 0.235 0  1.625 0.765 0  0 0.25 0  0 0.75 0  2 0.75 0  2 0.25 0  0.625 0.81875 0  0.6499999999999999 0.190625 0  1.375 0.8187500000000001 0  1.375 0.18125 0  1.15 0.7 0  1.15 0.3 0  0.85 0.7 0  1.814791666666667 0.1852083333333333 0  1.811730769230769 0.7382692307692308 0  0.1852083333333333 0.1852083333333334 0  0.1840244119319019 0.815975588068098 0  0.85 0.3 0  2 0.875 0  1.152272727272727 0.1340909090909091 0  0.875 0 0  1.152272727272727 0.8659090909090909 0  0.8477272727272727 0.8659090909090909 0  0.8025975318471337 0.1491341560509555 0  0.5140763145316528 0.7206234211963826 0  0.4901224013758102 0.8594594147419381 0  1.875 1 0  1.48464960456942 0.2795221880492092 0  1.51016818730963 0.1407409912480207 0  1.48464960456942 0.7204778119507909 0  1.517998509539161 0.858828994435724 0  0.5218371613039796 0.2706765982218459 0  0.375 1 0  1.625 0 0  0 0.625 0  0.1279662324777819 0.3186873708662855 0  2 0.375 0  2 0.625 0  1.625 1 0  0.4762884050256251 0.1381321303327793 0  1.66715200204435 0.3671520020443497 0  0.3411194216097047 0.3718755262632354 0  1.66715200204435 0.6328479979556505 0  0.2293375031488215 0.6852297049426554 0  1.8125 0.8765958288588708 0  1.828700169805353 0.318794259420021 0  0.375 0 0  0.3030849358974359 0.1225080128205128 0  1.696915064102564 0.1225080128205128 0  0.3125 0.8827687679325231 0  0.4100587955541826 0.6346030229804038 0  2 0.125 0  1.875 0 0  0.125 0 0  0 0.125 0  0.125 1 0  0 0.875 0  0.5 0.45 0  0.5 0.55 0  1.278149224806201 0.7297238372093023 0  1.250775615004007 0.2184103757970662 0  0.7492243849959929 0.7815896242029338 0  1.125 1 0  1.375 0 0  1.375 1 0  0.625 0 0  0.625 1 0  1.125 0 0  0.875 1 0  0 0.375 0  1.5 0.55 0  1.5 0.45 0  0.2480454145864052 0.2911694084917106 0  0.1061636102285989 0.6875 0  0.9172520139947967 0.112654991253252 0  1.682026291298303 0.8825000000000001 0  0.6499999999999999 0.7050892857142856 0  1.35 0.2949107142857143 0  0.7749999999999999 0.35 0  1.263701301081917 0.8426362379684855 0  1.901952516101588 0.8069329477617702 0  0.6 0.5 0  0.7 0.5 0  1.3 0.5 0  1.4 0.5 0  1.727600713014309 0.2750723856898529 0  1.3125 0.09062500000000001 0  0.7142592324977534 0.8909203568981011 0  1.883829473776445 0.6450078637524899 0  0.6830874463519312 0.2933811695278971 0  0.7070263916632118 0.0989984759544718 0  0.4316959974368003 0.3216648344694547 0  1.380950802730399 0.7150815420254574 0  0.3065181328757786 0.6128678607000935 0  0.5818077415991646 0.1026164027410931 0  0.9375 0.9174691833590138 0  1.047116689280869 0.9 0  1.0625 0.08253081664098619 0  1.575831396629752 0.676518355006118 0  1.55888866349099 0.3587674601363565 0  1.4375 0.9202987442070407 0  0.925 0.25 0  1.898145355082274 0.2440468520852883 0  0.2101839610042735 0.09000834668803417 0  0.1061033326390469 0.1135790505786181 0  0.09544599273732228 0.2257275858847144 0  1.8125 0.08207278777652795 0  0.217966377040559 0.9076457089970479 0  0.2738344022609309 0.7738762677729314 0  0.0814316252519587 0.8125 0  1.4375 0.07525327865218089 0  0.5625 0.9249899135948225 0  1.904586244829915 0.1464615224468097 0  1.744016930730878 0.8078112236212321 0  1.336236868906671 0.909375 0  1.776885324280126 0.6459403188375784 0  0.1202836912147299 0.9022840281039533 0  1.708781716491081 0.7189249933309093 0  1.904101394003999 0.3958986059960003 0  1.225 0.35 0  0.7749999999999999 0.6499999999999999 0  0.07245832196556974 0.5649857308297664 0  0.07245832196556991 0.4350142691702333 0  1.600155803939286 0.09694604053970658 0  1.906498832379319 0.9050341767410571 0  0.7395198302319537 0.2185048068670455 0  1.929319135268518 0.5624131848615803 0  1.192971893151267 0.7823814560091357 0  1.075 0.75 0  0.4061659433429421 0.9081082988297638 0  0.5132215234690947 0.360618740666639 0  1.225 0.6499999999999999 0  0.925 0.75 0  1.075 0.25 0  0.5512900568072264 0.1864565208394959 0  1.581167620911809 0.5873352418236175 0  0.2885057759523771 0.2110616359185661 0  1.593994717940027 0.9123639132241911 0  0.4212267295746058 0.4095812569963867 0  1.9375 0 0  2 0.0625 0  0.3881495246442013 0.1473603292365287 0  0.4375 0 0  0.5203951145825836 0.634209770834833 0  1.479544041656137 0.6340880833122748 0  1.755651787083367 0.3687822938381424 0  1.224765949825823 0.08426701736150129 0  0.2206585476125226 0.3695670637204487 0  1.07506901412899 0.1645795091318676 0  1.151136363636364 0.2170454545454546 0  0.9249309858710097 0.8354204908681324 0  0.7900036951255988 0.9264973001454673 0  1.1875 1 0  1.221344379396217 0.918226669561771 0  0.8488636363636364 0.7829545454545455 0  2 0.3125 0  0.8425886855399499 0.07640702899038848 0  0.3451973255788813 0.6860982230385505 0  1.477176894376523 0.3706462112469538 0  1.892277940918713 0.7260390202279857 0  0.6053223777592734 0.2617163340157894 0  0.1366572879283138 0.6132172689980417 0  0.8767669976572787 0.183829901696625 0  1.734312916462054 0.194354217051338 0  0.6358370118041781 0.8966293729975513 0  0.0625 0 0  0.4254296797826017 0.07790150880037369 0  0.0625 1 0  0.325 0.480201944959433 0  1.92581980103314 0.4721133056178217 0  1.675 0.480201944959433 0  1.68664354441175 0.5573253462218921 0  1.082179034295607 0.8289260983483835 0  1.904764711899212 0.3198299058827855 0  0.4168432122069987 0.8297658089581273 0  0.4566447213929462 0.2189812831651196 0  1.591685173164597 0.8349342830268984 0  1.533749638400075 0.7818373685814323 0  1.455696077414499 0.8059760010402454 0  0.1686918926316089 0.7374366337613715 0  1.90625 0.06990635764468446 0  1.620885539353526 0.4271612268364069 0  1.542504721969586 0.2184236464568206 0  0.9949252774665426 0.1219386785908539 0  0.4338464485831625 0.7117387264759969 0  0.5863598564893037 0.7506712216607603 0  1.416648798464286 0.327639446233766 0  0.5838428563156408 0.6721266313560732 0  2 0.6875 0  1.412978141476274 0.249183169093648 0  0.1442761096606068 0.3906357074122901 0  0.3464733991224566 0.550813757819126 0  0.4672496122382359 0.7767891610807409 0  1.449528495155154 0.1841671848770897 0  0.5505824438750014 0.8159828333211079 0  0.06097042075975112 0.2899564099443032 0  0.162441804455353 0.2544585468066967 0  0.2515140598341737 0.8431055049241685 0  1.508091341603097 0.9292987433934674 0  0.3125 0 0  0.3530550570442522 0.06947972340498598 0  1.661411492502874 0.06098752102514014 0  0.2848293132020425 0.4151706867979574 0  1.302321766598192 0.1645086954495226 0  0.8156600088457951 0.2309188807474504 0  0.7 0.45 0  0.6 0.55 0  0.55 0.575 0  1.4 0.45 0  1.45 0.425 0  1.4 0.55 0  1.45 0.575 0  1.571812968831181 0.2861304084233215 0  1.530671578227107 0.06852186336978081 0  0.3630747334266106 0.3046791235976137 0  0.6875 1 0  0.4755617942555476 0.9311001820263514 0  2 0.1875 0  1.35 0.6508409658867128 0  1.595333463987267 0.1690763300181999 0  0.5132280109697771 0.07337192148753263 0  0.07018707600830057 0.3609417193972463 0  0.9375 0 0  0 0.0625 0  0 0.9375 0  1.325515777996516 0.2299455714704491 0  0 0.1875 0  1.660060967657433 0.2966152714601534 0  1.642615142985795 0.6978201027615898 0  0.5794576841249596 0.3299650910486734 0  0.2184968267666885 0.6167843680148617 0  1.813188555186561 0.8074265619392141 0  1.74918685017469 0.9220590235917012 0  1.8125 1 0  1.6875 1 0  1.84538439786796 0.9374701477032144 0  0.985829156030089 0.8680785867537879 0  1.71115653260446 0.42147410231474 0  0.7745858315663394 0.08637237667517719 0  0.8581308326208463 0.9336120648598586 0  1.114299681563871 0.9280047118126826 0  1.156995061722164 0.06331148205342724 0  1.768286804887032 0.1346484358995713 0  1.219879536571258 0.1548077115155514 0  1.273737374357294 0.2912273573052739 0  0.7262626256427063 0.708772642694726 0  0.7683710923653957 0.2812543740322987 0  1.74263903925824 0.06956570012770677 0  0.7757289136414349 0.8503225431286444 0  0.6499999999999999 0.3532805130518777 0  1.0625 1 0  0.45 0.525 0  0.45 0.475 0  0.9626187472125531 0.06266183112941157 0  1.830748432489386 0.2510639858274513 0  1.820709862628178 0.3854853370689849 0  0.5625 0 0  1.667964881073882 0.1832337384052585 0  0.28125 0.05921414769878126 0  0.2467253217
[...]
<PointData  Vectors="f_179"> 
<DataArray  type="Float64"  Name="f_179"  NumberOfComponents="3" format="ascii">-2.2307912261305140e-08 7.1164130661666123e-09 0.0000000000000000e+00  3.2885316500297216e-07 3.3537122325831419e-07 0.0000000000000000e+00  2.3179526719103250e-03 -2.0850000226881622e-03 0.0000000000000000e+00  -1.1442233788239345e-02 -1.1347176852904163e-02 0.0000000000000000e+00  -4.0547971157609121e-05 -1.2923233107901964e-05 0.0000000000000000e+00  -4.0515427899213723e-05 -2.8143484474148787e-07 0.0000000000000000e+00  -4.0319911903006311e-05 1.2049073267635168e-05 0.0000000000000000e+00  -3.5153254879950520e-05 2.5685860044740251e-05 0.0000000000000000e+00  -2.5582391450877555e-05 3.4092045205680370e-05 0.0000000000000000e+00  -1.3283793357381661e-05 3.8605337542004256e-05 0.0000000000000000e+00  -5.3944869332759122e-08 3.2149214940127227e-05 0.0000000000000000e+00  6.4021183159957488e-06 2.3306269645374161e-05 0.0000000000000000e+00  9.8721436469944370e-06 1.4904826150613603e-05 0.0000000000000000e+00  1.0190325449194170e-05 6.9859766395509189e-06 0.0000000000000000e+00  7.4554136511082079e-06 2.2747954005851851e-06 0.0000000000000000e+00  7.2421971711703128e-06 -2.0264953634331660e-07 0.0000000000000000e+00  7.6828951561619760e-06 -2.0550461264368912e-06 0.0000000000000000e+00  9.5422845010346264e-06 -6.9958309622307414e-06 0.0000000000000000e+00  9.3025974405242902e-06 -1.4266549845325509e-05 0.0000000000000000e+00  6.5108709062863572e-06 -2.3474987740852687e-05 0.0000000000000000e+00  1.7696387996070566e-06 -3.1909101277884796e-05 0.0000000000000000e+00  -1.1399184238360801e-05 -3.7447546231078885e-05 0.0000000000000000e+00  -2.7276230840657131e-05 -3.5184232727930305e-05 0.0000000000000000e+00  -3.5074075712328961e-05 -2.5795687118723918e-05 0.0000000000000000e+00  5.6114466083436147e-05 -4.6978499870838635e-07 0.0000000000000000e+00  -1.4901223832874700e-04 -3.4013813631934972e-04 0.0000000000000000e+00  -1.4302931074595564e-04 3.0829165788243655e-04 0.0000000000000000e+00  -1.2284147012885181e-02 -1.0982907409409698e-01 0.0000000000000000e+00  -9.0347223692815337e+00 -4.4318021704179689e+00 0.0000000000000000e+00  -9.4719482638686987e+00 3.8050135033841173e+00 0.0000000000000000e+00  -1.5070703124608772e-02 1.0780992345333910e-01 0.0000000000000000e+00  2.9737504264444218e-04 2.1177295001883367e-04 0.0000000000000000e+00  3.0502462017405625e-04 -1.9334543994200371e-04 0.0000000000000000e+00  -7.5981393128180406e+00 1.0304603487989693e+01 0.0000000000000000e+00  1.0396593876306847e+01 3.3005818197608110e-02 0.0000000000000000e+00  -8.9648273844759210e+00 -1.3487487250719933e+01 0.0000000000000000e+00  -4.4515825761909250e-01 -1.3286398259635165e-01 0.0000000000000000e+00  -3.8400348144198099e-01 -9.8462710159342853e-03 0.0000000000000000e+00  -4.1553134281641591e-01 1.4058466869167519e-01 0.0000000000000000e+00  -5.1252650301160929e-01 3.6543009861519710e-01 0.0000000000000000e+00  -6.6580235169702273e-01 8.5740806324675767e-01 0.0000000000000000e+00  -5.3544306544833531e-01 1.6170199147389341e+00 0.0000000000000000e+00  6.9022349556438359e-03 2.3375265509894891e+00 0.0000000000000000e+00  9.7210452054848862e-01 3.1787460497016875e+00 0.0000000000000000e+00  2.8722024388626579e+00 3.6094230133265683e+00 0.0000000000000000e+00  4.5297204894937488e+00 3.3495275428840330e+00 0.0000000000000000e+00  6.3966123929314307e+00 1.7699386299254145e+00 0.0000000000000000e+00  6.9828234513117060e+00 6.5601802663672300e-03 0.0000000000000000e+00  6.2668103962701274e+00 -2.0685660270212565e+00 0.0000000000000000e+00  4.7059188120749509e+00 -3.2522361962066659e+00 0.0000000000000000e+00  2.6952604821096409e+00 -3.7399166081874018e+00 0.0000000000000000e+00  1.1884212640402385e+00 -3.3682931354705699e+00 0.0000000000000000e+00  1.1620527818649326e-01 -2.4116106710911702e+00 0.0000000000000000e+00  -5.2768278362676835e-01 -1.5446219658963007e+00 0.0000000000000000e+00  -6.6197194055792108e-01 -9.0660587149987470e-01 0.0000000000000000e+00  -5.7093604702569944e-01 -4.2407682767964316e-01 0.0000000000000000e+00  -1.4956424530097249e-04 -4.5362200621696998e-02 0.0000000000000000e+00  4.0635456575829616e-04 4.7581861279401234e-02 0.0000000000000000e+00  -3.1662174781819608e-06 5.6656749388702822e-09 0.0000000000000000e+00  1.6946451581668090e-01 4.8951654457278016e-04 0.0000000000000000e+00  1.7498521679011943e-06 -1.9503232395107681e-04 0.0000000000000000e+00  -9.5444600100556029e-04 -1.0830723227088370e+00 0.0000000000000000e+00  5.0287620273184745e-04 1.0834434100143224e+00 0.0000000000000000e+00  2.8768110746381858e-06 1.9325531091200489e-04 0.0000000000000000e+00  -1.6299369159770968e-02 -6.3916148469556722e-01 0.0000000000000000e+00  -1.4483108197758828e-03 6.3340737438607631e-01 0.0000000000000000e+00  5.0428562851647716e-08 2.8357004665453143e-05 0.0000000000000000e+00  -2.8261882440479482e-07 -2.8334549643826682e-05 0.0000000000000000e+00  -1.9801412428426647e-03 -4.9475168848075834e-01 0.0000000000000000e+00  1.0587643689693150e-05 -1.9654020093385982e-03 0.0000000000000000e+00  3.8647703855260221e-06 2.1438509549936103e-03 0.0000000000000000e+00  1.2382314571177293e-03 4.9218855435471498e-01 0.0000000000000000e+00  -6.2497182612473979e-05 -8.9539746970336409e-06 0.0000000000000000e+00  -6.2858046938703128e-05 8.3590910474306514e-06 0.0000000000000000e+00  7.9601867213766364e-01 -1.2975677467759841e+00 0.0000000000000000e+00  7.9989525095398673e-01 1.2934865018995716e+00 0.0000000000000000e+00  -1.0655952149446673e-05 -7.1408146119409375e-09 0.0000000000000000e+00  -1.0659837409991730e-05 1.0364126152112345e-09 0.0000000000000000e+00  4.2994177647003762e-01 -4.2647771199728039e-04 0.0000000000000000e+00  4.2967767220268321e-01 1.6260053359360698e-04 0.0000000000000000e+00  -4.7652237244723392e-04 -4.8502776775080182e-05 0.0000000000000000e+00  -5.7384418495077020e-04 1.3181984087274273e-04 0.0000000000000000e+00  -6.8054664220201389e-01 1.1455959477380806e+00 0.0000000000000000e+00  -6.7981103465516202e-01 -1.1556824440305524e+00 0.0000000000000000e+00  -3.7132276804643177e-01 -5.6452678891339492e-01 0.0000000000000000e+00  -3.6993254693310429e-01 5.5137601568824868e-01 0.0000000000000000e+00  1.5134142151194596e-03 -2.2279467904360245e-03 0.0000000000000000e+00  5.2333185266551907e-01 -3.6500923476441938e-01 0.0000000000000000e+00  7.8279501796593176e-01 2.0686859980145680e-01 0.0000000000000000e+00  -1.8895595274528839e-05 -5.2745027582604839e-06 0.0000000000000000e+00  -1.8822200701364047e-05 5.3375896679060833e-06 0.0000000000000000e+00  1.3890109516605264e-03 2.1058402766742945e-03 0.0000000000000000e+00  2.6144726180017847e-01 -1.4034462961221811e-03 0.0000000000000000e+00  -2.8214474813542156e-01 -1.1849129134312372e-01 0.0000000000000000e+00  7.1171044629884098e-05 -9.5506903736711952e-03 0.0000000000000000e+00  -2.7713328319238079e-01 1.2311085003314617e-01 0.0000000000000000e+00  -5.6903528621638630e-03 -6.5296355842702001e-04 0.0000000000000000e+00  -3.0632040449424143e-03 6.3726344556790137e-04 0.0000000000000000e+00  -1.2860254550653403e-04 -1.0005358439705620e-04 0.0000000000000000e+00  -1.5265409983476836e-04 6.8363028094494581e-05 0.0000000000000000e+00  -5.7315632648751672e-04 2.9367424851403129e-01 0.0000000000000000e+00  -4.2935628379611769e-02 -2.4612350889517662e+00 0.0000000000000000e+00  1.7748983741182136e-02 -1.3376431912945290e+00 0.0000000000000000e+00  3.8156541897684231e-04 2.4709366978953731e+00 0.0000000000000000e+00  4.4793816652733319e-02 1.3341935583765967e+00 0.0000000000000000e+00  -1.4202310384258879e-04 1.0414430029072592e-04 0.0000000000000000e+00  -1.3017565587081756e-07 7.1999242372801692e-05 0.0000000000000000e+00  -1.4181626500382100e-03 -9.5076464849239906e-01 0.0000000000000000e+00  -6.9858250787584661e-06 -4.5742063567216027e-08 0.0000000000000000e+00  -1.2289577653373842e-05 5.3157883451292890e-06 0.0000000000000000e+00  3.4442531617738048e-01 -1.2696061243885567e-03 0.0000000000000000e+00  3.4159051282769193e-01 -6.3657275272017881e-03 0.0000000000000000e+00  -8.3921959687162319e-04 9.5534219690449595e-01 0.0000000000000000e+00  -1.3362203126264551e-04 -6.7536957183663194e-05 0.0000000000000000e+00  2.3439092590594637e+00 -1.0431365504811965e+00 0.0000000000000000e+00  -2.3442938493162229e-05 3.0810088943646195e-05 0.0000000000000000e+00  2.3407464252706029e+00 1.0241368555012267e+00 0.0000000000000000e+00  -2.1903500253106805e-05 -1.1279772053164914e-05 0.0000000000000000e+00  3.4417720240007593e-01 4.2379712013444443e-01 0.0000000000000000e+00  8.3283744040950014e-01 8.5126981478694699e-02 0.0000000000000000e+00  8.7983565957817346e-07 -7.2790889658864223e-05 0.0000000000000000e+00  -3.2180019857618778e-05 -2.6401968050102471e-05 0.0000000000000000e+00  3.6556032606843802e-01 -8.0027359055247005e-01 0.0000000000000000e+00  -3.2810818119669943e-05 2.9359156604796206e-05 0.0000000000000000e+00  -2.7368791840402329e-05 -5.4745080752497569e-05 0.0000000000000000e+00  2.6806106600810670e-01 3.5933155436750379e-04 0.0000000000000000e+00  -4.5706127360609176e-04 -2.8992032322939421e-01 0.0000000000000000e+00  1.3165304264193767e-08 -1.0047244747046976e-05 0.0000000000000000e+00  -7.9604056171087772e-06 -4.5495184865948216e-09 0.0000000000000000e+00  -5.4846145200735509e-08 1.0134719006162290e-05 0.0000000000000000e+00  -8.0480665484833003e-06 -1.4093252330694069e-08 0.0000000000000000e+00  4.4305487050982190e-05 8.7553506173360882e-05 0.0000000000000000e+00  4.2868035576497664e-05 -8.5302678885907957e-05 0.0000000000000000e+00  -1.5211734813917985e+00 7.4359311976753856e-02 0.0000000000000000e+00  -9.0470190160939068e-01 -1.9892306826358225e-01 0.0000000000000000e+00  -1.0031076053350590e-03 -9.6369914012326254e-04 0.0000000000000000e+00  -4.4673055514729239e-04 1.8558748312635859e-01 0.0000000000000000e+00  -8.7940137585167154e-04 -8.8363361337844903e-01 0.0000000000000000e+00  -3.9792992056485746e-04 8.8318351377175974e-01 0.0000000000000000e+00  4.0998184177192363e-06 -5.5679399395132856e-04 0.0000000000000000e+00  9.1807778253910823e-07 5.6361994745709055e-04 0.0000000000000000e+00  1.5989117854875474e-03 -1.8675903304358177e-01 0.0000000000000000e+00  -3.2095423516880986e-06 9.3422222451950161e-03 0.0000000000000000e+00  -6.8992657741060289e-06 -3.9590313673350618e-08 0.0000000000000000e+00  2.0349247496419682e+00 4.0816617791513528e+00 0.0000000000000000e+00  2.0431564814119723e+00 -4.0839277038246102e+00 0.0000000000000000e+00  -2.5779390701288259e-05 9.1696200110875333e-06 0.0000000000000000e+00  -1.1615481360235654e-05 -3.9309248430724208e-06 0.0000000000000000e+00  -1.5309988285708585e-02 -1.3307450199021890e-03 0.0000000000000000e+00  3.3541864418221806e-01 8.5784004091096788e-01 0.0000000000000000e+00  -2.0041472720306485e-04 -3.8376415736338814e-04 0.0000000000000000e+00  -2.2638762430664081e+00 -1.3207341056160975e+00 0.0000000000000000e+00  5.1231487859268953e-04 7.5991276827039290e-04 0.0000000000000000e+00  -5.8597876177934105e-01 4.5010873944016572e-01 0.0000000000000000e+00  4.3138667514557016e-01 1.4049017331528918e-01 0.0000000000000000e+00  -2.1035504641883085e-05 -7.1725608314787973e-08 0.0000000000000000e+00  2.0878162613227733e-05 2.5936144611259640e-08 0.0000000000000000e+00  -9.8504442737257634e+00 2.4117157665840337e-03 0.0000000000000000e+00  -1.0171774535337555e+01 -8.0032378035659274e-04 0.0000000000000000e+00  1.1077358595874300e+00 -5.7700955614469307e-01 0.0000000000000000e+00  -3.1580064722297713e-01 -7.1019174155907949e-01 0.0000000000000000e+00  -1.1668510059346764e-03 5.4813972197487670e-04 0.0000000000000000e+00  5.2420357181390620e-01 -2.2129862957981111e-01 0.0000000000000000e+00  -1.9522521916166163e-04 5.2823445537939341e-04 0.0000000000000000e+00  -1.0150143422106668e-03 -6.2247832341741534e-04 0.0000000000000000e+00  -5.3253045248504359e-05 5.9486587524634832e-05 0.0000000000000000e+00  -1.7727661980475533e+00 1.9045356172494388e+00 0.0000000000000000e+00  -2.0745377942841562e-05 -2.4619792041208887e-05 0.0000000000000000e+00  -2.8924551400832032e-04 -2.2072546386772370e-04 0.0000000000000000e+00  -1.9126854253793305e-02 9.7606169434127383e-03 0.0000000000000000e+00  -8.4849100714769018e-02 3.6949458904351640e-02 0.0000000000000000e+00  -8.6790918138658343e-02 -6.4509207144469283e-02 0.0000000000000000e+00  1.3732319596476481e+00 2.2062871215133484e+00 0.0000000000000000e+00  1.6295420329838028e+00 -2.7284392856334390e+00 0.0000000000000000e+00  -1.3513789301857659e-01 1.0973290514821186e+00 0.0000000000000000e+00  5.3692926465173279e-03 7.6976261469872400e-03 0.0000000000000000e+00  5.1097812600500725e-01 -7.6933092221528943e-02 0.0000000000000000e+00  -1.3760602128118570e-05 -1.6870225286861756e-05 0.0000000000000000e+00  -9.3756404639155355e-06 -6.0491981273401525e-06 0.0000000000000000e+00  -1.2799445617997521e-05 -4.4851304827950386e-07 0.0000000000000000e+00  2.2635302220275011e-01 -4.4171425031011846e-01 0.0000000000000000e+00  -1.4568253491592070e-05 1.7909935368107558e-05 0.0000000000000000e+00  -3.2943403900944726e-05 2.3939127701945217e-07 0.0000000000000000e+00  -1.1774607831481912e-05 1.8732637500053051e-06 0.0000000000000000e+00  -1.2688521209068768e-01 -1.0854761616647273e+00 0.0000000000000000e+00  -1.9853878914119312e-04 2.5155503291076416e-04 0.0000000000000000e+00  3.3966375362745321e-01 -1.7530076082739945e-01 0.0000000000000000e+00  6.3788248918793211e-01 6.1457557683958330e-01 0.0000000000000000e+00  -3.0115149374427469e-01 7.9467915209633710e-01 0.0000000000000000e+00  1.3457022216511492e+00 -2.4269373872994193e-01 0.0000000000000000e+00  -8.7528362301433500e-06 7.4979018174575138e-06 0.0000000000000000e+00  1.2091012838781949e+00 6.9374933045005205e-01 0.0000000000000000e+00  3.3446177278572209e-01 2.4504242428993744e-01 0.0000000000000000e+00  -9.5369777319327509e-01 1.4473932123317983e+00 0.0000000000000000e+00  5.0757648761806749e-04 -7.4685359658850973e-04 0.0000000000000000e+00  -3.2717850430667553e-06 -3.0692600000353468e-06 0.0000000000000000e+00  -3.1987529858537980e-06 3.2033747396820229e-06 0.0000000000000000e+00  1.9202233701150828e-01 -1.0714216349789589e+00 0.0000000000000000e+00  2.2487456920557869e-01 2.0014801734560247e-01 0.0000000000000000e+00  -9.2381123878899235e-04 8.7212308934343276e-04 0.0000000000000000e+00  1.8941224845958374e-01 -1.4533959730579432e-01 0.0000000000000000e+00  -6.0580283413557545e-01 -4.6831074305794244e-02 0.0000000000000000e+00  -1.4946625440053690e-01 -2.2478968491831375e-01 0.0000000000000000e+00  -5.8655069817398709e-05 6.8854524346268026e-05 0.0000000000000000e+00  -3.3942336049514646e-05 1.3596341582420296e-04 0.0000000000000000e+00  -9.9712145536880259e-01 -1.4173899954404343e+00 0.0000000000000000e+00  4.9115035072051965e-03 -7.5874782577305408e-03 0.0000000000000000e+00  -1.5309612709099715e-01 2.2692448048788508e-01 0.0000000000000000e+00  -2.5635412535195980e-04 -4.5355379132729387e-07 0.0000000000000000e+00  2.6941256101967035e+00 3.0496054775657049e+00 0.0000000000000000e+00  -3.6623675309724873e-05 -3.3430996263659385e-06 0.0000000000000000e+00  1.5917610862193310e-01 1.0721253396727330e+00 0.0000000000000000e+00  -5.4489857463980441e-06 5.8383827047738264e-05 0.0000000000000000e+00  -2.0423811938252729e-03 -1.4086304122359322e-01 0.0000000000000000e+00  1.3147972189606844e-01 -1.2765220991353484e-03 0.0000000000000000e+00  -6.6694786705571044e-05 -3.4225243317738420e-05 0.0000000000000000e+00  -1.1465962642299753e-06 -1.1467550187739355e-04 0.0000000000000000e+00  -3.0163884551668056e-05 -1.4841920478714620e-04 0.0000000000000000e+00  7.3346048036006439e-01 3.9809417472278636e+00 0.0000000000000000e+00  1.6786715618559234e+00 3.1325527792804031e-01 0.0000000000000000e+00  -2.4756326076847485e-01 -3.9450866861916134e-01 0.0000000000000000e+00  -1.6471558948260237e-05 1.6812580558973343e-05 0.0000000000000000e+00  -1.6861599817789485e-01 3.2751032318593457e-02 0.0000000000000000e+00  -4.1505358021100536e-01 1.1802758081380010e-01 0.0000000000000000e+00  -1.0967276732287212e-02 -1.1625552671714537e-02 0.0000000000000000e+00  -2.3001838998334876e-03 1.9503735486081952e-03 0.0000000000000000e+00  -1.2936178934653403e-03 3.2066633491155788e-01 0.0000000000000000e+00  -2.4173495987688795e-01 3.7421521039568101e-01 0.0000000000000000e+00  -1.5198765456947269e-03 -3.8397176918839242e-03 0.0000000000000000e+00  4.2328366385137628e-01 -3.4166763195335329e-04 0.0000000000000000e+00  -4.7213835131798372e-03 -3.3032343852150104e-03 0.0000000000000000e+00  -3.7423693881434851e-05 -2.5957093815070379e-05 0.0000000000000000e+00  8.8686818673483858e-01 -4.1280250863284760e+00 0.0000000000000000e+00  5.5086907645229100e-01 2.2709274715619669e-02 0.0000000000000000e+00  -2.5069158219432328e-04 2.2087097162891414e-04 0.0000000000000000e+00  -7.4055009188747172e-06 -9.3047343697031615e-06 0.0000000000000000e+00  -4.3260418023419057e-03 5.5271245175320160e-03 0.0000000000000000e+00  6.5348713074635290e-01 -6.5401429829334701e-01 0.0000000000000000e+00  -4.9441197077181118e-04 3.3146767266477160e-04 0.0000000000000000e+00  -2.8592008522925053e-07 -4.6315541190040733e-06 0.0000000000000000e+00  -5.7701521599998330e-05 -8.6065361334005302e-05 0.0000000000000000e+00  1.2764995345003609e-07 4.5753354478696813e-06 0.0000000000000000e+00  -7.5142376546625843e-06 8.8040210257155542e-06 0.0000000000000000e+00  9.6143619356588675e-02 8.3930619659100689e-02 0.0000000000000000e+00  4.8625134436905686e+00 -2.5813386707936936e-01 0.0000000000000000e+00  3.9580958102758412e+00 2.4063929784383833e-01 0.0000000000000000e+00  -1.8335252635442492e-01 -4.3967867359419099e-02 0.0000000000000000e+00  5.1855002261396343e-01 8.7847257331993958e-02 0.0000000000000000e+00  -8.8760586444839763e-05 2.4743582008842118e-05 0.0000000000000000e+00  -1.1620462900122175e-04 1.5059939293857023e-05 0.0000000000000000e+00  3.5529958148760188e-01 1.2597582454037604e+00 0.0000000000000000e+00  2.5766522550911314e-01 1.6902398506806569e+00 0.0000000000000000e+00  -2.9280372895714601e-01 1.5767559588039177e+00 0.0000000000000000e+00  -1.7352697909302015e-05 -3.0185764198711394e-06 0.0000000000000000e+00  1.6342885074221827e-01 -2.1021622137269375e-01 0.0000000000000000e+00  3.5897310943714555e+00 -2.2239298756411716e+00 0.0000000000000000e+00  3.3801860850860449e-01 -1.6705512938758831e+00 0.0000000000000000e+00  -5.0990471220728077e-02 2.8879169401402516e-03 0.0000000000000000e+00  -7.3334534097995783e-05 -4.9522563378260179e-05 0.0000000000000000e+00  -2.5845266745530066e-04 -1.6589553597640480e-04 0.0000000000000000e+00  -1.6069479624732388e+00 -3.5052007800451341e+00 0.0000000000000000e+00  -1.0933168326932036e-04 -2.3321131618133666e-04 0.0000000000000000e+00  4.2122990524013076e-01 1.0919618912038442e-03 0.0000000000000000e+00  -9.3480889095642772e-01 -1.8858494610647403e+00 0.0000000000000000e+00  -7.2012734144034421e-06 1.0283069576500441e-05 0.0000000000000000e+00  -4.1873410775671135e-06 -2.2808283640839080e-05 0.0000000000000000e+00  -1.2423390674719658e-04 -2.1242350005292975e-05 0.0000000000000000e+00  -3.2044972855530585e-01 -1.4883349336668510e+00 0.0000000000000000e+00  -2.5429862061308411e-04 7.1360115460960187e-07 0.0000000000000000e+00  -1.0814888262819772e-05 1.4320982905313670e-06 0.0000000000000000e+00  -1.7119845697657946e-05 1.8830223613050516e-06 0.0000000000000000e+00  -2.6538138293614057e-05 1.3127935322301391e-05 0.0000000000000000e+00  -2.5589759508179203e-03 1.1419887292633604e+00 0.0000000000000000e+00  2.0679342651223793e-07 -4.5740893021511454e-05 0.0000000000000000e+00  -3.0005273581192943e-05 -5.2557269718204062e-05 0.0000000000000000e+00  1.5760541636838363e-01 -8.7841754978406672e-01 0.0000000000000000e+00  -1.8987905526843097e-05 2.1723680096752032e-05 0.0000000000000000e+00  -6.7416175342988882e-01 -6.5241959724384646e-01 0.0000000000000000e+00  -9.1111126290979348e-04 2.4123735971721357e-03 0.0000000000000000e+00  5.2440056636507359e-05 1.6150836776545133e-06 0.