<?xml version="1.0"?>
<VTKFile type="UnstructuredGrid"  version="0.1"  >
<UnstructuredGrid>
<Piece  NumberOfPoints="17661" NumberOfCells="34505">
<Points>
<DataArray  type="Float64"  NumberOfComponents="3"  format="ascii">0 1 0  0 0 0  2 0 0  2 1 0  0.2475528258147577 0.5154508497187473 0  0.25 0.5 0  0.2475528258147577 0.4845491502812526 0  0.2404508497187474 0.4706107373853763 0  0.2293892626146237 0.4595491502812526 0  0.2154508497187474 0.4524471741852423 0  0.2 0.45 0  0.1845491502812526 0.4524471741852423 0  0.1706107373853764 0.4595491502812526 0  0.1595491502812526 0.4706107373853763 0  0.1524471741852423 0.4845491502812527 0  0.15 0.5 0  0.1524471741852423 0.5154508497187473 0  0.1595491502812526 0.5293892626146237 0  0.1706107373853764 0.5404508497187474 0  0.1845491502812527 0.5475528258147577 0  0.2 0.55 0  0.2154508497187474 0.5475528258147577 0  0.2293892626146237 0.5404508497187474 0  0.2404508497187474 0.5293892626146237 0  0.4 0.5 0  0.6 0.6 0  0.6 0.4 0  1 0.8 0  1.3 0.6 0  1.3 0.4 0  1 0.2 0  0.7 0.4 0  0.7 0.6 0  1.4 0.6 0  1.6 0.5 0  1.4 0.4 0  1.847552825814758 0.5154508497187473 0  1.85 0.5 0  1.847552825814758 0.4845491502812526 0  1.840450849718748 0.4706107373853763 0  1.829389262614624 0.4595491502812526 0  1.815450849718747 0.4524471741852423 0  1.8 0.45 0  1.784549150281253 0.4524471741852423 0  1.770610737385376 0.4595491502812526 0  1.759549150281253 0.4706107373853763 0  1.752447174185242 0.4845491502812527 0  1.75 0.5 0  1.752447174185242 0.5154508497187473 0  1.759549150281253 0.5293892626146237 0  1.770610737385376 0.5404508497187474 0  1.784549150281253 0.5475528258147577 0  1.8 0.55 0  1.815450849718747 0.5475528258147577 0  1.829389262614624 0.5404508497187474 0  1.840450849718748 0.5293892626146237 0  1 0 0  1 1 0  0 0.5 0  2 0.5 0  0.5 0 0  1.5 0 0  1.5 1 0  0.5 1 0  1.75 0 0  1.75 1 0  0.25 1 0  0.25 0 0  1.25 0 0  0.75 0 0  0.75 1 0  1.25 1 0  0.3725554334277117 0.7642666300283135 0  0.375 0.235 0  1.625 0.235 0  1.625 0.765 0  0 0.25 0  0 0.75 0  2 0.75 0  2 0.25 0  0.625 0.81875 0  0.6499999999999999 0.190625 0  1.375 0.8187500000000001 0  1.375 0.18125 0  1.15 0.7 0  1.15 0.3 0  0.85 0.7 0  1.814791666666667 0.1852083333333333 0  1.811730769230769 0.7382692307692308 0  0.1852083333333333 0.1852083333333334 0  0.1840244119319019 0.815975588068098 0  0.85 0.3 0  2 0.875 0  1.152272727272727 0.1340909090909091 0  0.875 0 0  1.152272727272727 0.8659090909090909 0  0.8477272727272727 0.8659090909090909 0  0.8025975318471337 0.1491341560509555 0  0.5140763145316528 0.7206234211963826 0  0.4901224013758102 0.8594594147419381 0  1.875 1 0  1.48464960456942 0.2795221880492092 0  1.51016818730963 0.1407409912480207 0  1.48464960456942 0.7204778119507909 0  1.517998509539161 0.858828994435724 0  0.5218371613039796 0.2706765982218459 0  0.375 1 0  1.625 0 0  0 0.625 0  0.1279662324777819 0.3186873708662855 0  2 0.375 0  2 0.625 0  1.625 1 0  0.4762884050256251 0.1381321303327793 0  1.66715200204435 0.3671520020443497 0  0.3411194216097047 0.3718755262632354 0  1.66715200204435 0.6328479979556505 0  0.2293375031488215 0.6852297049426554 0  1.8125 0.8765958288588708 0  1.828700169805353 0.318794259420021 0  0.375 0 0  0.3030849358974359 0.1225080128205128 0  1.696915064102564 0.1225080128205128 0  0.3125 0.8827687679325231 0  0.4100587955541826 0.6346030229804038 0  2 0.125 0  1.875 0 0  0.125 0 0  0 0.125 0  0.125 1 0  0 0.875 0  0.5 0.45 0  0.5 0.55 0  1.278149224806201 0.7297238372093023 0  1.250775615004007 0.2184103757970662 0  0.7492243849959929 0.7815896242029338 0  1.125 1 0  1.375 0 0  1.375 1 0  0.625 0 0  0.625 1 0  1.125 0 0  0.875 1 0  0 0.375 0  1.5 0.55 0  1.5 0.45 0  0.2480454145864052 0.2911694084917106 0  0.1061636102285989 0.6875 0  0.9172520139947967 0.112654991253252 0  1.682026291298303 0.8825000000000001 0  0.6499999999999999 0.7050892857142856 0  1.35 0.2949107142857143 0  0.7749999999999999 0.35 0  1.263701301081917 0.8426362379684855 0  1.901952516101588 0.8069329477617702 0  0.6 0.5 0  0.7 0.5 0  1.3 0.5 0  1.4 0.5 0  1.727600713014309 0.2750723856898529 0  1.3125 0.09062500000000001 0  0.7142592324977534 0.8909203568981011 0  1.883829473776445 0.6450078637524899 0  0.6830874463519312 0.2933811695278971 0  0.7070263916632118 0.0989984759544718 0  0.4316959974368003 0.3216648344694547 0  1.380950802730399 0.7150815420254574 0  0.3065181328757786 0.6128678607000935 0  0.5818077415991646 0.1026164027410931 0  0.9375 0.9174691833590138 0  1.047116689280869 0.9 0  1.0625 0.08253081664098619 0  1.575831396629752 0.676518355006118 0  1.55888866349099 0.3587674601363565 0  1.4375 0.9202987442070407 0  0.925 0.25 0  1.898145355082274 0.2440468520852883 0  0.2101839610042735 0.09000834668803417 0  0.1061033326390469 0.1135790505786181 0  0.09544599273732228 0.2257275858847144 0  1.8125 0.08207278777652795 0  0.217966377040559 0.9076457089970479 0  0.2738344022609309 0.7738762677729314 0  0.0814316252519587 0.8125 0  1.4375 0.07525327865218089 0  0.5625 0.9249899135948225 0  1.904586244829915 0.1464615224468097 0  1.744016930730878 0.8078112236212321 0  1.336236868906671 0.909375 0  1.776885324280126 0.6459403188375784 0  0.1202836912147299 0.9022840281039533 0  1.708781716491081 0.7189249933309093 0  1.904101394003999 0.3958986059960003 0  1.225 0.35 0  0.7749999999999999 0.6499999999999999 0  0.07245832196556974 0.5649857308297664 0  0.07245832196556991 0.4350142691702333 0  1.600155803939286 0.09694604053970658 0  1.906498832379319 0.9050341767410571 0  0.7395198302319537 0.2185048068670455 0  1.929319135268518 0.5624131848615803 0  1.192971893151267 0.7823814560091357 0  1.075 0.75 0  0.4061659433429421 0.9081082988297638 0  0.5132215234690947 0.360618740666639 0  1.225 0.6499999999999999 0  0.925 0.75 0  1.075 0.25 0  0.5512900568072264 0.1864565208394959 0  1.581167620911809 0.5873352418236175 0  0.2885057759523771 0.2110616359185661 0  1.593994717940027 0.9123639132241911 0  0.4212267295746058 0.4095812569963867 0  1.9375 0 0  2 0.0625 0  0.3881495246442013 0.1473603292365287 0  0.4375 0 0  0.5203951145825836 0.634209770834833 0  1.479544041656137 0.6340880833122748 0  1.755651787083367 0.3687822938381424 0  1.224765949825823 0.08426701736150129 0  0.2206585476125226 0.3695670637204487 0  1.07506901412899 0.1645795091318676 0  1.151136363636364 0.2170454545454546 0  0.9249309858710097 0.8354204908681324 0  0.7900036951255988 0.9264973001454673 0  1.1875 1 0  1.221344379396217 0.918226669561771 0  0.8488636363636364 0.7829545454545455 0  2 0.3125 0  0.8425886855399499 0.07640702899038848 0  0.3451973255788813 0.6860982230385505 0  1.477176894376523 0.3706462112469538 0  1.892277940918713 0.7260390202279857 0  0.6053223777592734 0.2617163340157894 0  0.1366572879283138 0.6132172689980417 0  0.8767669976572787 0.183829901696625 0  1.734312916462054 0.194354217051338 0  0.6358370118041781 0.8966293729975513 0  0.0625 0 0  0.4254296797826017 0.07790150880037369 0  0.0625 1 0  0.325 0.480201944959433 0  1.92581980103314 0.4721133056178217 0  1.675 0.480201944959433 0  1.68664354441175 0.5573253462218921 0  1.082179034295607 0.8289260983483835 0  1.904764711899212 0.3198299058827855 0  0.4168432122069987 0.8297658089581273 0  0.4566447213929462 0.2189812831651196 0  1.591685173164597 0.8349342830268984 0  1.533749638400075 0.7818373685814323 0  1.455696077414499 0.8059760010402454 0  0.1686918926316089 0.7374366337613715 0  1.90625 0.06990635764468446 0  1.620885539353526 0.4271612268364069 0  1.542504721969586 0.2184236464568206 0  0.9949252774665426 0.1219386785908539 0  0.4338464485831625 0.7117387264759969 0  0.5863598564893037 0.7506712216607603 0  1.416648798464286 0.327639446233766 0  0.5838428563156408 0.6721266313560732 0  2 0.6875 0  1.412978141476274 0.249183169093648 0  0.1442761096606068 0.3906357074122901 0  0.3464733991224566 0.550813757819126 0  0.4672496122382359 0.7767891610807409 0  1.449528495155154 0.1841671848770897 0  0.5505824438750014 0.8159828333211079 0  0.06097042075975112 0.2899564099443032 0  0.162441804455353 0.2544585468066967 0  0.2515140598341737 0.8431055049241685 0  1.508091341603097 0.9292987433934674 0  0.3125 0 0  0.3530550570442522 0.06947972340498598 0  1.661411492502874 0.06098752102514014 0  0.2848293132020425 0.4151706867979574 0  1.302321766598192 0.1645086954495226 0  0.8156600088457951 0.2309188807474504 0  0.7 0.45 0  0.6 0.55 0  0.55 0.575 0  1.4 0.45 0  1.45 0.425 0  1.4 0.55 0  1.45 0.575 0  1.571812968831181 0.2861304084233215 0  1.530671578227107 0.06852186336978081 0  0.3630747334266106 0.3046791235976137 0  0.6875 1 0  0.4755617942555476 0.9311001820263514 0  2 0.1875 0  1.35 0.6508409658867128 0  1.595333463987267 0.1690763300181999 0  0.5132280109697771 0.07337192148753263 0  0.07018707600830057 0.3609417193972463 0  0.9375 0 0  0 0.0625 0  0 0.9375 0  1.325515777996516 0.2299455714704491 0  0 0.1875 0  1.660060967657433 0.2966152714601534 0  1.642615142985795 0.6978201027615898 0  0.5794576841249596 0.3299650910486734 0  0.2184968267666885 0.6167843680148617 0  1.813188555186561 0.8074265619392141 0  1.74918685017469 0.9220590235917012 0  1.8125 1 0  1.6875 1 0  1.84538439786796 0.9374701477032144 0  0.985829156030089 0.8680785867537879 0  1.71115653260446 0.42147410231474 0  0.7745858315663394 0.08637237667517719 0  0.8581308326208463 0.9336120648598586 0  1.114299681563871 0.9280047118126826 0  1.156995061722164 0.06331148205342724 0  1.768286804887032 0.1346484358995713 0  1.219879536571258 0.1548077115155514 0  1.273737374357294 0.2912273573052739 0  0.7262626256427063 0.708772642694726 0  0.7683710923653957 0.2812543740322987 0  1.74263903925824 0.06956570012770677 0  0.7757289136414349 0.8503225431286444 0  0.6499999999999999 0.3532805130518777 0  1.0625 1 0  0.45 0.525 0  0.45 0.475 0  0.9626187472125531 0.06266183112941157 0  1.830748432489386 0.2510639858274513 0  1.820709862628178 0.3854853370689849 0  0.5625 0 0  1.667964881073882 0.1832337384052585 0  0.28125 0.05921414769878126 0  0.2467253217
[...]
<PointData  Vectors="f_127"> 
<DataArray  type="Float64"  Name="f_127"  NumberOfComponents="3" format="ascii">-7.0148215797774689e-04 2.1662817467384130e-04 0.0000000000000000e+00  1.0236753889372424e-02 1.0422329046530517e-02 0.0000000000000000e+00  7.4250711722613169e-08 -6.7337806136647327e-08 0.0000000000000000e+00  -3.6798339875719312e-07 -3.6576757628637090e-07 0.0000000000000000e+00  -6.2521524497673155e+00 -2.0169261589421228e+00 0.0000000000000000e+00  -6.8942863119170035e+00 8.7925832816629825e-03 0.0000000000000000e+00  -6.4196006540918269e+00 1.8723617063274161e+00 0.0000000000000000e+00  -4.6427616905169575e+00 3.5123805548459295e+00 0.0000000000000000e+00  -2.8159089459616724e+00 3.6039935382201187e+00 0.0000000000000000e+00  -1.1392433966062852e+00 3.4640871779357418e+00 0.0000000000000000e+00  -5.3002367279478520e-03 2.3730238610489067e+00 0.0000000000000000e+00  4.0384062918506819e-01 1.5431857737966417e+00 0.0000000000000000e+00  5.9856258660279515e-01 9.2034429658732830e-01 0.0000000000000000e+00  5.9733259807458317e-01 4.0580155911888172e-01 0.0000000000000000e+00  4.1960560861851937e-01 1.2937599170253222e-01 0.0000000000000000e+00  4.0496134328558653e-01 -1.1247969091011259e-02 0.0000000000000000e+00  4.3294361258996766e-01 -1.1435984583076211e-01 0.0000000000000000e+00  5.5741472669449299e-01 -4.0426811092024445e-01 0.0000000000000000e+00  5.5940797448261792e-01 -8.7725639858990589e-01 0.0000000000000000e+00  4.1847502339395692e-01 -1.5496947409127171e+00 0.0000000000000000e+00  1.7705312000023501e-01 -2.3408205413310150e+00 0.0000000000000000e+00  -9.4670957427903046e-01 -3.2508096235732786e+00 0.0000000000000000e+00  -3.0504363429281955e+00 -3.7900797569683347e+00 0.0000000000000000e+00  -4.7799640448582661e+00 -3.3572216672045312e+00 0.0000000000000000e+00  -1.0208139800718342e+01 -6.0575933568659028e-02 0.0000000000000000e+00  8.1856816102856449e+00 1.1336239544238104e+01 0.0000000000000000e+00  8.3171299283573710e+00 -1.0272925172634732e+01 0.0000000000000000e+00  1.5836871418814801e-02 -1.1009160689507817e-01 0.0000000000000000e+00  -2.9537658967040492e-04 -2.3858979172794112e-04 0.0000000000000000e+00  -2.9298725780752243e-04 1.9284246431238992e-04 0.0000000000000000e+00  1.7591738364421614e-02 1.1006153541923565e-01 0.0000000000000000e+00  9.1359814918327249e+00 3.8210784356117915e+00 0.0000000000000000e+00  9.5295413308104582e+00 -4.0164051282762756e+00 0.0000000000000000e+00  1.3354638478624614e-04 -3.1060256004135866e-04 0.0000000000000000e+00  -5.7171649328739261e-05 -6.6395445366901973e-07 0.0000000000000000e+00  1.6431337891312733e-04 3.8848180907641083e-04 0.0000000000000000e+00  -7.9014179601929509e-06 -2.3610100540199669e-06 0.0000000000000000e+00  -6.8831902981707294e-06 -1.7034364383612243e-07 0.0000000000000000e+00  -7.3869771016838830e-06 2.4920729601252990e-06 0.0000000000000000e+00  -8.8825319627891321e-06 6.3317884479977051e-06 0.0000000000000000e+00  -1.0773577019744421e-05 1.4074113970730788e-05 0.0000000000000000e+00  -7.8539877476671708e-06 2.4394899182702299e-05 0.0000000000000000e+00  1.0394525425492135e-07 3.1700762693329240e-05 0.0000000000000000e+00  1.1646846283913039e-05 3.6963917441475605e-05 0.0000000000000000e+00  2.5760077585470520e-05 3.4876334032509426e-05 0.0000000000000000e+00  3.5078961459490241e-05 2.6876494805570826e-05 0.0000000000000000e+00  3.9725588747389819e-05 1.1671417822199560e-05 0.0000000000000000e+00  4.1220665395892724e-05 1.9460722706239495e-07 0.0000000000000000e+00  3.9744288386997243e-05 -1.3235999245276661e-05 0.0000000000000000e+00  3.5582552804059831e-05 -2.5098367688663939e-05 0.0000000000000000e+00  2.5672461066308794e-05 -3.5265433218493565e-05 0.0000000000000000e+00  1.3115194373632911e-05 -3.8295572574679413e-05 0.0000000000000000e+00  1.0474033474933222e-06 -3.2558898655190080e-05 0.0000000000000000e+00  -8.0231339132313704e-06 -2.3408155713032305e-05 0.0000000000000000e+00  -1.0685192407854496e-05 -1.4851140408761187e-05 0.0000000000000000e+00  -9.8326299541812690e-06 -7.3066561411985791e-06 0.0000000000000000e+00  2.1208417317588441e-04 -4.7765884886685921e-02 0.0000000000000000e+00  -2.8633654188911501e-04 4.5599164139542368e-02 0.0000000000000000e+00  -1.7000572371529185e-01 2.8247816880927273e-04 0.0000000000000000e+00  3.1581258554762639e-06 9.8963002957624806e-09 0.0000000000000000e+00  -4.4982211959005650e-04 -1.0834146850492667e+00 0.0000000000000000e+00  4.4529620956217618e-06 -1.9273651932869487e-04 0.0000000000000000e+00  -1.0800738326325737e-06 1.9254409453506468e-04 0.0000000000000000e+00  -8.7733149613974221e-04 1.0836300659719653e+00 0.0000000000000000e+00  -1.2418368307555323e-06 -2.9044333934777279e-05 0.0000000000000000e+00  -1.1803211136958980e-07 2.8674628565137673e-05 0.0000000000000000e+00  9.9006983553437920e-04 6.2957687216182923e-01 0.0000000000000000e+00  -3.5295767227062464e-03 -6.2901802947799723e-01 0.0000000000000000e+00  1.5279907274010674e-05 -2.0720526556705873e-03 0.0000000000000000e+00  -1.2856399248781993e-03 -5.0876926596403915e-01 0.0000000000000000e+00  1.3609939038201717e-04 4.8543775169481146e-01 0.0000000000000000e+00  -1.2836916148583688e-05 2.0807587649478150e-03 0.0000000000000000e+00  -8.1065124283604395e-01 1.3036307902136615e+00 0.0000000000000000e+00  -7.9034349113022484e-01 -1.2959083558697158e+00 0.0000000000000000e+00  6.2527116075653829e-05 8.5624365628485413e-06 0.0000000000000000e+00  6.3473791702078048e-05 -7.4486944450653422e-06 0.0000000000000000e+00  -4.2984557320502365e-01 6.1168100508968777e-05 0.0000000000000000e+00  -4.2852309398074306e-01 6.7533944158541380e-06 0.0000000000000000e+00  1.0656427307990189e-05 1.4347879342656698e-08 0.0000000000000000e+00  1.0662926158816357e-05 -6.3388193159642368e-09 0.0000000000000000e+00  6.8059054990406065e-01 1.1598883447124984e+00 0.0000000000000000e+00  8.0607742905729429e-01 -1.0029932644226349e+00 0.0000000000000000e+00  4.6612977272829121e-04 -3.5656745733733112e-05 0.0000000000000000e+00  4.7343009957385171e-04 4.8055871133309233e-05 0.0000000000000000e+00  -1.4305810955731551e-03 -2.1118064165488270e-03 0.0000000000000000e+00  -1.4481857369056295e-03 2.1796348521721820e-03 0.0000000000000000e+00  3.5782330827621728e-01 -5.4217606783806893e-01 0.0000000000000000e+00  1.8690573835455064e-05 -5.3091933480072895e-06 0.0000000000000000e+00  1.9763919474493635e-05 -2.9163218238000603e-06 0.0000000000000000e+00  -5.3102824519806302e-01 -3.5994131852556427e-01 0.0000000000000000e+00  -5.2191612286409994e-01 3.5869957168599265e-01 0.0000000000000000e+00  3.8183468873821724e-01 5.6725659662051586e-01 0.0000000000000000e+00  7.8514902395015206e-06 -3.7677316510224816e-08 0.0000000000000000e+00  5.5071648257314556e-03 8.6062500271050116e-04 0.0000000000000000e+00  2.5457774733444961e-04 -1.8165095430519304e-01 0.0000000000000000e+00  5.6480404090057789e-03 -7.0540431497305293e-04 0.0000000000000000e+00  2.7539372189629746e-01 1.2558585630119729e-01 0.0000000000000000e+00  4.1240850311375643e-01 -1.9755882112933121e-01 0.0000000000000000e+00  -1.5788316828417312e-03 2.4273028309790949e+00 0.0000000000000000e+00  -5.6700527813865623e-03 1.3322229535528298e+00 0.0000000000000000e+00  -2.0400171749921671e-08 1.0230911947893479e-05 0.0000000000000000e+00  1.3194611118243332e-04 1.0328663732154344e-04 0.0000000000000000e+00  1.4938640893941987e-04 -6.6787769065927583e-05 0.0000000000000000e+00  1.2996082359818898e-04 -1.0672618645599333e-04 0.0000000000000000e+00  1.4093931213248338e-04 6.3629116822248486e-05 0.0000000000000000e+00  1.1349242825971513e-01 -2.3577667595055076e+00 0.0000000000000000e+00  -9.0545119866010317e-04 9.5562755879096772e-01 0.0000000000000000e+00  -3.0483742366983587e-07 -7.0807085907941949e-05 0.0000000000000000e+00  -3.4247646347387517e-01 -1.7191853284135045e-03 0.0000000000000000e+00  -6.2171164191770056e-01 1.1014809133964733e-01 0.0000000000000000e+00  7.0347469066955719e-06 -3.8690741313768968e-08 0.0000000000000000e+00  6.9702296356891145e-06 -1.6010986292792981e-07 0.0000000000000000e+00  -2.7102585351520192e-07 7.2136872565315536e-05 0.0000000000000000e+00  -5.6922592867250668e-02 -1.3080350855872185e+00 0.0000000000000000e+00  2.4269707880205276e-05 2.9232116424560972e-05 0.0000000000000000e+00  -2.4331510696184995e+00 -1.1572937236143579e+00 0.0000000000000000e+00  2.4420189241421975e-05 -2.9053819186203241e-05 0.0000000000000000e+00  -1.1720384664109411e+00 1.2000725012678570e-01 0.0000000000000000e+00  1.5212661987303637e-05 1.1411252570980198e-05 0.0000000000000000e+00  1.5677911282011862e-05 7.7435386846683427e-06 0.0000000000000000e+00  3.1852003297026775e-03 -9.5920575849480005e-01 0.0000000000000000e+00  -3.5936719570492359e-01 -8.1004757813096884e-01 0.0000000000000000e+00  3.2337917922452050e-05 -2.6104974638383020e-05 0.0000000000000000e+00  -3.4002594102496003e-01 8.4172679896150149e-01 0.0000000000000000e+00  -2.0294844106146721e+00 2.3107603845575397e+00 0.0000000000000000e+00  8.0074827081046377e-06 2.7648478537144464e-09 0.0000000000000000e+00  -2.0018458862083053e-08 -1.0063582285407794e-05 0.0000000000000000e+00  5.2064467931329248e-04 -2.8959428883822158e-01 0.0000000000000000e+00  -2.6660229281299280e-01 -1.9010267046285767e-04 0.0000000000000000e+00  -1.3652131243764476e-03 2.9134833119717141e-01 0.0000000000000000e+00  -2.6936847483654047e-01 -6.6112923233649498e-04 0.0000000000000000e+00  -2.0493619450766327e+00 -4.0814998827919649e+00 0.0000000000000000e+00  -2.0431189087265618e+00 4.0823724650567144e+00 0.0000000000000000e+00  3.2537671425388612e-04 -8.1313619698884830e-04 0.0000000000000000e+00  9.4782331201377287e-04 9.7168117631598499e-04 0.0000000000000000e+00  8.7812941202421679e-01 2.0191218471255970e-01 0.0000000000000000e+00  -3.7032303920862810e-06 9.2740313386233987e-03 0.0000000000000000e+00  1.6600517561416439e-06 -5.7742107981439928e-04 0.0000000000000000e+00  6.9464940794368752e-07 5.7966193534351529e-04 0.0000000000000000e+00  -2.2971831521781875e-03 -8.9400798865266962e-01 0.0000000000000000e+00  -5.8939730210216476e-04 8.9092622775996066e-01 0.0000000000000000e+00  -1.5054755672967902e-04 -9.1514851618024161e-03 0.0000000000000000e+00  2.9917098777407057e-04 1.8421622349935549e-01 0.0000000000000000e+00  -3.3951407137817674e-01 -1.7370456009006925e-03 0.0000000000000000e+00  -4.2885523781121435e-05 -8.5220481045285556e-05 0.0000000000000000e+00  -4.3726127718655287e-05 8.7057777254637513e-05 0.0000000000000000e+00  -1.1304924331205684e+00 -3.5991376408466896e-01 0.0000000000000000e+00  -5.5392672725805048e-01 -7.9671433539178188e-02 0.0000000000000000e+00  1.3828575326490225e-01 -5.8745853960200989e-02 0.0000000000000000e+00  3.4889685483353922e-05 3.0448415709351332e-05 0.0000000000000000e+00  2.2873893673283363e+00 1.3211948776851350e+00 0.0000000000000000e+00  2.0165871150369219e-04 3.8489151411044687e-04 0.0000000000000000e+00  9.8088385922538257e-01 1.4822961741434639e+00 0.0000000000000000e+00  1.4586200717641629e-03 -1.7201983513851442e-04 0.0000000000000000e+00  1.2562773288230896e-05 1.9992803369099958e-06 0.0000000000000000e+00  1.0170002821520930e+01 6.4080811190480160e-04 0.0000000000000000e+00  9.8509898672511458e+00 -1.6485257737106581e-04 0.0000000000000000e+00  -2.0543260206149728e-05 -4.1071613770662636e-07 0.0000000000000000e+00  2.1053824898626429e-05 8.1826563730687703e-08 0.0000000000000000e+00  3.0560830510819322e-05 8.5004781524564717e-06 0.0000000000000000e+00  7.8742502888981601e-04 -6.0667689129345300e-04 0.0000000000000000e+00  3.8355129718344361e-01 5.9882220249280815e-01 0.0000000000000000e+00  9.4389717776904489e-06 -6.1756797001548220e-06 0.0000000000000000e+00  2.2125260423635953e+00 -5.3006447915477128e-01 0.0000000000000000e+00  3.5134155624192404e-01 -6.2421269110293021e-01 0.0000000000000000e+00  -1.2732368073006517e+00 -2.2425119430622407e+00 0.0000000000000000e+00  2.1385790873471895e-04 -2.8863751101652679e-04 0.0000000000000000e+00  -2.5891419238122180e+00 4.8954308062609675e-01 0.0000000000000000e+00  2.2480560362326443e-01 -1.0974262601603124e+00 0.0000000000000000e+00  8.6855577683054894e-02 6.5678235567042886e-02 0.0000000000000000e+00  2.5698308660216357e-02 5.7877544512274755e-03 0.0000000000000000e+00  1.9463161744762855e-02 -9.0336301449261535e-03 0.0000000000000000e+00  4.9782213279106207e-05 -5.7301034411235464e-05 0.0000000000000000e+00  3.3819207592976178e-05 7.2427023179564296e-05 0.0000000000000000e+00  2.0114245927783928e-04 2.3827167992903332e-04 0.0000000000000000e+00  1.4603053268176813e-01 2.2342786098104145e-01 0.0000000000000000e+00  1.3147433577314915e-05 4.8312554318705176e-07 0.0000000000000000e+00  -2.6027056028123169e-01 -5.0631210316063291e-01 0.0000000000000000e+00  -2.7266349272573714e-01 -2.2287739189086367e-01 0.0000000000000000e+00  -4.7619744975537071e-01 -1.0061008455201621e-01 0.0000000000000000e+00  1.0912146508323488e-05 -1.4711132983329110e-05 0.0000000000000000e+00  -2.6648244004895633e-01 5.3279024418390342e-01 0.0000000000000000e+00  -8.2557219270849580e-01 6.6070511449162694e-01 0.0000000000000000e+00  -4.1081697033861836e-01 1.1917306208618991e-01 0.0000000000000000e+00  1.9172080530729897e-04 -2.5029007980142807e-04 0.0000000000000000e+00  1.3300360576458106e-01 1.0846418875905142e+00 0.0000000000000000e+00  1.0794672177255397e-05 -3.9282997770994091e-06 0.0000000000000000e+00  2.9231855466839638e-05 6.8148135249932519e-06 0.0000000000000000e+00  6.0724457766127185e-04 5.1216163439666749e-04 0.0000000000000000e+00  1.8078692156973276e-05 -1.5151160889833582e-05 0.0000000000000000e+00  -2.3882465832668126e-01 2.5662456964645830e-01 0.0000000000000000e+00  3.3064359658229015e-05 -1.1925019390509406e-05 0.0000000000000000e+00  5.8824175376057609e-06 5.3568679223188958e-06 0.0000000000000000e+00  -5.3035353674266129e-04 7.7316264987472053e-04 0.0000000000000000e+00  9.8242822553216402e-01 -1.5141030370450113e+00 0.0000000000000000e+00  -1.8443082575225886e-01 -1.5286751798257908e-01 0.0000000000000000e+00  -1.8043202420686322e-01 1.6027727462466279e-01 0.0000000000000000e+00  5.7558742921950853e-05 -6.4105700214358633e-05 0.0000000000000000e+00  7.7574580480228531e-06 5.8011135551663814e-06 0.0000000000000000e+00  9.2749843514939823e-01 -2.4909377121504389e-01 0.0000000000000000e+00  3.3961724781314948e-06 -2.9106750163197096e-06 0.0000000000000000e+00  1.3062655534866812e-03 -2.1571502941936261e-03 0.0000000000000000e+00  -5.1203217529168779e-03 -7.6039203202580260e-03 0.0000000000000000e+00  -1.6962167821158142e-01 1.0850427796609736e+00 0.0000000000000000e+00  -8.1635974808806466e-01 -3.7190773508043624e+00 0.0000000000000000e+00  -5.0613050875397767e-04 -7.9777709655562260e-04 0.0000000000000000e+00  1.5415672723317078e-01 -2.2762816426929722e-01 0.0000000000000000e+00  -4.9252233767046513e-03 7.5011228193237727e-03 0.0000000000000000e+00  3.3575784015697624e-01 -1.5013827794153278e+00 0.0000000000000000e+00  3.7278872165667211e-06 -5.8408994278586988e-05 0.0000000000000000e+00  -7.5499673244812626e-01 -7.5558831789774550e-01 0.0000000000000000e+00  5.5232307551730566e-05 6.9649265728933212e-05 0.0000000000000000e+00  -2.6158410479773742e+00 -3.0433470035015104e+00 0.0000000000000000e+00  -6.8184993790848126e-08 -4.6136460572843514e-06 0.0000000000000000e+00  4.1604950164419377e-06 -3.7572104209895559e-08 0.0000000000000000e+00  -3.6049756292214230e-01 -1.1388064490781395e+00 0.0000000000000000e+00  -1.3213065470689918e-03 -1.0542803166368973e+00 0.0000000000000000e+00  -7.3145228587717759e-01 4.0047442961516220e+00 0.0000000000000000e+00  2.9402048349338877e-05 -1.4679755389316397e-04 0.0000000000000000e+00  1.8764298269253475e-05 1.8001341755124806e-05 0.0000000000000000e+00  2.0891999079642666e-03 -1.4948280138501683e-03 0.0000000000000000e+00  -1.3788247446681021e+00 4.7138824803135543e-01 0.0000000000000000e+00  1.1243642025122338e-02 1.0834223545416428e-02 0.0000000000000000e+00  1.5742985125578302e-03 3.9415510001216099e-03 0.0000000000000000e+00  1.6498056014005871e-01 -3.6627885263696772e-02 0.0000000000000000e+00  2.1061906568584118e-01 3.4666367523441732e-01 0.0000000000000000e+00  2.4335179441364318e-05 4.2057949842915629e-03 0.0000000000000000e+00  2.1745568940234545e-03 1.5318999758984189e-03 0.0000000000000000e+00  4.1570144169556694e-01 -1.2822269546752252e-01 0.0000000000000000e+00  9.4749611629623102e-06 -2.4624665953969950e-08 0.0000000000000000e+00  1.6856184281455378e-01 -2.1485606919588965e-01 0.0000000000000000e+00  -1.5898968001803664e+00 1.1959780333368670e+00 0.0000000000000000e+00  1.9758935342333245e-05 1.4875961674934765e-04 0.0000000000000000e+00  1.2969641815735553e-05 -2.0885294754606867e-06 0.0000000000000000e+00  1.2713846339538755e+00 -1.8515485571243906e+00 0.0000000000000000e+00  -4.9044322448284289e-01 -4.2374718875230094e-01 0.0000000000000000e+00  2.9204295159381477e-01 4.0283748267981895e-02 0.0000000000000000e+00  3.1133233853068361e-05 -6.6690383573881479e-06 0.0000000000000000e+00  3.3265561215156264e-01 9.2018354247358203e-01 0.0000000000000000e+00  -8.4094895838059663e-03 -1.4147565208902099e-01 0.0000000000000000e+00  -1.0559181295051176e-01 -1.0985777761544144e+00 0.0000000000000000e+00  3.7307187883174660e-03 1.3976316683880269e-01 0.0000000000000000e+00  -4.8401591022418380e+00 -2.6578760568841403e-01 0.0000000000000000e+00  1.6801602770414837e-06 1.6005683721253052e-06 0.0000000000000000e+00  7.8623351995265423e-06 8.2702472951296564e-06 0.0000000000000000e+00  1.3363680815092806e-05 -1.9333873220519282e-05 0.0000000000000000e+00  9.0584475815554330e-03 -1.0961631910720897e-02 0.0000000000000000e+00  1.0701210165401503e-05 3.7321688523246217e-06 0.0000000000000000e+00  -3.4384810170377550e-01 1.3049569557900420e+00 0.0000000000000000e+00  -3.2531966959090103e-01 -1.6671270167974679e+00 0.0000000000000000e+00  8.2961067026380100e-05 2.7491563158306373e-05 0.0000000000000000e+00  1.2531554519417730e-04 -1.6058341011972256e-05 0.0000000000000000e+00  2.3727781714847661e-04 -1.4452333239068819e-05 0.0000000000000000e+00  -7.0059626680755072e-01 1.4133995986766457e-01 0.0000000000000000e+00  5.7841039059417747e-06 -6.5390162084883288e-06 0.0000000000000000e+00  3.4684837688743344e-06 3.7695752804751490e-05 0.0000000000000000e+00  1.1454227476644862e-04 1.5178353185766494e-05 0.0000000000000000e+00  5.7443147833331328e-02 2.0247031055348158e-03 0.0000000000000000e+00  -8.9803452589533606e-01 2.0100753964185314e+00 0.0000000000000000e+00  9.1223266905056510e-01 1.8820714690495455e+00 0.0000000000000000e+00  1.0559202881245964e-04 2.3148346873728455e-04 0.0000000000000000e+00  1.5985513363303130e+00 3.5994346180826140e+00 0.0000000000000000e+00  9.4029643579332971e-06 3.2944017637257756e-08 0.0000000000000000e+00  2.5964752040205354e-04 1.6552883179414804e-04 0.0000000000000000e+00  -5.0083436948547777e-01 4.9007955995146935e-01 0.0000000000000000e+00  -4.3781630296231198e+00 1.1624616448898730e+00 0.0000000000000000e+00  -2.7032260529978502e-01 1.7277398368886439e+00 0.0000000000000000e+00  2.5488347249426525e-04 -5.3791361874321875e-06 0.0000000000000000e+00  3.1856964914984143e-01 1.5025109087504938e+00 0.0000000000000000e+00  -4.7256612666497744e-01 1.2980433347448139e-02 0.0000000000000000e+00  -6.6907252244664550e-01 -1.5088067983526326e-01 0.0000000000000000e+00  -4.9536747800493086e-01 6.2109422536422387e-01 0.0000000000000000e+00  9.7308056193122879e-05 1.4989553103219225e-04 0.0000000000000000e+00  1.6614143259218160e-03 -8.0853058514066600e-01 0.0000000000000000e+00  -1.6961661938879971e-01 -9.2847518266439955e-01 0.0000000000000000e+00  2.3497619493552521e-05 -4.7946646605645734e-05 0.0000000000000000e+00  -3.0827825220553180e+00 2.5966041716494981e-01 0.0000000000000000e+00  9.7466954636002542e-04 1.0652614771953802e-04 0.0000000000000000e+00  5.9136247713106238e-01 1.3661654509148177e-01 0.0000000000000000e+00  9.7069464197003583e+00 -1.6355904908469136e-03 0.0000000000000000e+00  1.0464889977036052e+01 -4.3613264276