<?xml version="1.0"?>
<VTKFile type="UnstructuredGrid"  version="0.1"  >
<UnstructuredGrid>
<Piece  NumberOfPoints="17661" NumberOfCells="34505">
<Points>
<DataArray  type="Float64"  NumberOfComponents="3"  format="ascii">0 1 0  0 0 0  2 0 0  2 1 0  0.2475528258147577 0.5154508497187473 0  0.25 0.5 0  0.2475528258147577 0.4845491502812526 0  0.2404508497187474 0.4706107373853763 0  0.2293892626146237 0.4595491502812526 0  0.2154508497187474 0.4524471741852423 0  0.2 0.45 0  0.1845491502812526 0.4524471741852423 0  0.1706107373853764 0.4595491502812526 0  0.1595491502812526 0.4706107373853763 0  0.1524471741852423 0.4845491502812527 0  0.15 0.5 0  0.1524471741852423 0.5154508497187473 0  0.1595491502812526 0.5293892626146237 0  0.1706107373853764 0.5404508497187474 0  0.1845491502812527 0.5475528258147577 0  0.2 0.55 0  0.2154508497187474 0.5475528258147577 0  0.2293892626146237 0.5404508497187474 0  0.2404508497187474 0.5293892626146237 0  0.4 0.5 0  0.6 0.6 0  0.6 0.4 0  1 0.8 0  1.3 0.6 0  1.3 0.4 0  1 0.2 0  0.7 0.4 0  0.7 0.6 0  1.4 0.6 0  1.6 0.5 0  1.4 0.4 0  1.847552825814758 0.5154508497187473 0  1.85 0.5 0  1.847552825814758 0.4845491502812526 0  1.840450849718748 0.4706107373853763 0  1.829389262614624 0.4595491502812526 0  1.815450849718747 0.4524471741852423 0  1.8 0.45 0  1.784549150281253 0.4524471741852423 0  1.770610737385376 0.4595491502812526 0  1.759549150281253 0.4706107373853763 0  1.752447174185242 0.4845491502812527 0  1.75 0.5 0  1.752447174185242 0.5154508497187473 0  1.759549150281253 0.5293892626146237 0  1.770610737385376 0.5404508497187474 0  1.784549150281253 0.5475528258147577 0  1.8 0.55 0  1.815450849718747 0.5475528258147577 0  1.829389262614624 0.5404508497187474 0  1.840450849718748 0.5293892626146237 0  1 0 0  1 1 0  0 0.5 0  2 0.5 0  0.5 0 0  1.5 0 0  1.5 1 0  0.5 1 0  1.75 0 0  1.75 1 0  0.25 1 0  0.25 0 0  1.25 0 0  0.75 0 0  0.75 1 0  1.25 1 0  0.3725554334277117 0.7642666300283135 0  0.375 0.235 0  1.625 0.235 0  1.625 0.765 0  0 0.25 0  0 0.75 0  2 0.75 0  2 0.25 0  0.625 0.81875 0  0.6499999999999999 0.190625 0  1.375 0.8187500000000001 0  1.375 0.18125 0  1.15 0.7 0  1.15 0.3 0  0.85 0.7 0  1.814791666666667 0.1852083333333333 0  1.811730769230769 0.7382692307692308 0  0.1852083333333333 0.1852083333333334 0  0.1840244119319019 0.815975588068098 0  0.85 0.3 0  2 0.875 0  1.152272727272727 0.1340909090909091 0  0.875 0 0  1.152272727272727 0.8659090909090909 0  0.8477272727272727 0.8659090909090909 0  0.8025975318471337 0.1491341560509555 0  0.5140763145316528 0.7206234211963826 0  0.4901224013758102 0.8594594147419381 0  1.875 1 0  1.48464960456942 0.2795221880492092 0  1.51016818730963 0.1407409912480207 0  1.48464960456942 0.7204778119507909 0  1.517998509539161 0.858828994435724 0  0.5218371613039796 0.2706765982218459 0  0.375 1 0  1.625 0 0  0 0.625 0  0.1279662324777819 0.3186873708662855 0  2 0.375 0  2 0.625 0  1.625 1 0  0.4762884050256251 0.1381321303327793 0  1.66715200204435 0.3671520020443497 0  0.3411194216097047 0.3718755262632354 0  1.66715200204435 0.6328479979556505 0  0.2293375031488215 0.6852297049426554 0  1.8125 0.8765958288588708 0  1.828700169805353 0.318794259420021 0  0.375 0 0  0.3030849358974359 0.1225080128205128 0  1.696915064102564 0.1225080128205128 0  0.3125 0.8827687679325231 0  0.4100587955541826 0.6346030229804038 0  2 0.125 0  1.875 0 0  0.125 0 0  0 0.125 0  0.125 1 0  0 0.875 0  0.5 0.45 0  0.5 0.55 0  1.278149224806201 0.7297238372093023 0  1.250775615004007 0.2184103757970662 0  0.7492243849959929 0.7815896242029338 0  1.125 1 0  1.375 0 0  1.375 1 0  0.625 0 0  0.625 1 0  1.125 0 0  0.875 1 0  0 0.375 0  1.5 0.55 0  1.5 0.45 0  0.2480454145864052 0.2911694084917106 0  0.1061636102285989 0.6875 0  0.9172520139947967 0.112654991253252 0  1.682026291298303 0.8825000000000001 0  0.6499999999999999 0.7050892857142856 0  1.35 0.2949107142857143 0  0.7749999999999999 0.35 0  1.263701301081917 0.8426362379684855 0  1.901952516101588 0.8069329477617702 0  0.6 0.5 0  0.7 0.5 0  1.3 0.5 0  1.4 0.5 0  1.727600713014309 0.2750723856898529 0  1.3125 0.09062500000000001 0  0.7142592324977534 0.8909203568981011 0  1.883829473776445 0.6450078637524899 0  0.6830874463519312 0.2933811695278971 0  0.7070263916632118 0.0989984759544718 0  0.4316959974368003 0.3216648344694547 0  1.380950802730399 0.7150815420254574 0  0.3065181328757786 0.6128678607000935 0  0.5818077415991646 0.1026164027410931 0  0.9375 0.9174691833590138 0  1.047116689280869 0.9 0  1.0625 0.08253081664098619 0  1.575831396629752 0.676518355006118 0  1.55888866349099 0.3587674601363565 0  1.4375 0.9202987442070407 0  0.925 0.25 0  1.898145355082274 0.2440468520852883 0  0.2101839610042735 0.09000834668803417 0  0.1061033326390469 0.1135790505786181 0  0.09544599273732228 0.2257275858847144 0  1.8125 0.08207278777652795 0  0.217966377040559 0.9076457089970479 0  0.2738344022609309 0.7738762677729314 0  0.0814316252519587 0.8125 0  1.4375 0.07525327865218089 0  0.5625 0.9249899135948225 0  1.904586244829915 0.1464615224468097 0  1.744016930730878 0.8078112236212321 0  1.336236868906671 0.909375 0  1.776885324280126 0.6459403188375784 0  0.1202836912147299 0.9022840281039533 0  1.708781716491081 0.7189249933309093 0  1.904101394003999 0.3958986059960003 0  1.225 0.35 0  0.7749999999999999 0.6499999999999999 0  0.07245832196556974 0.5649857308297664 0  0.07245832196556991 0.4350142691702333 0  1.600155803939286 0.09694604053970658 0  1.906498832379319 0.9050341767410571 0  0.7395198302319537 0.2185048068670455 0  1.929319135268518 0.5624131848615803 0  1.192971893151267 0.7823814560091357 0  1.075 0.75 0  0.4061659433429421 0.9081082988297638 0  0.5132215234690947 0.360618740666639 0  1.225 0.6499999999999999 0  0.925 0.75 0  1.075 0.25 0  0.5512900568072264 0.1864565208394959 0  1.581167620911809 0.5873352418236175 0  0.2885057759523771 0.2110616359185661 0  1.593994717940027 0.9123639132241911 0  0.4212267295746058 0.4095812569963867 0  1.9375 0 0  2 0.0625 0  0.3881495246442013 0.1473603292365287 0  0.4375 0 0  0.5203951145825836 0.634209770834833 0  1.479544041656137 0.6340880833122748 0  1.755651787083367 0.3687822938381424 0  1.224765949825823 0.08426701736150129 0  0.2206585476125226 0.3695670637204487 0  1.07506901412899 0.1645795091318676 0  1.151136363636364 0.2170454545454546 0  0.9249309858710097 0.8354204908681324 0  0.7900036951255988 0.9264973001454673 0  1.1875 1 0  1.221344379396217 0.918226669561771 0  0.8488636363636364 0.7829545454545455 0  2 0.3125 0  0.8425886855399499 0.07640702899038848 0  0.3451973255788813 0.6860982230385505 0  1.477176894376523 0.3706462112469538 0  1.892277940918713 0.7260390202279857 0  0.6053223777592734 0.2617163340157894 0  0.1366572879283138 0.6132172689980417 0  0.8767669976572787 0.183829901696625 0  1.734312916462054 0.194354217051338 0  0.6358370118041781 0.8966293729975513 0  0.0625 0 0  0.4254296797826017 0.07790150880037369 0  0.0625 1 0  0.325 0.480201944959433 0  1.92581980103314 0.4721133056178217 0  1.675 0.480201944959433 0  1.68664354441175 0.5573253462218921 0  1.082179034295607 0.8289260983483835 0  1.904764711899212 0.3198299058827855 0  0.4168432122069987 0.8297658089581273 0  0.4566447213929462 0.2189812831651196 0  1.591685173164597 0.8349342830268984 0  1.533749638400075 0.7818373685814323 0  1.455696077414499 0.8059760010402454 0  0.1686918926316089 0.7374366337613715 0  1.90625 0.06990635764468446 0  1.620885539353526 0.4271612268364069 0  1.542504721969586 0.2184236464568206 0  0.9949252774665426 0.1219386785908539 0  0.4338464485831625 0.7117387264759969 0  0.5863598564893037 0.7506712216607603 0  1.416648798464286 0.327639446233766 0  0.5838428563156408 0.6721266313560732 0  2 0.6875 0  1.412978141476274 0.249183169093648 0  0.1442761096606068 0.3906357074122901 0  0.3464733991224566 0.550813757819126 0  0.4672496122382359 0.7767891610807409 0  1.449528495155154 0.1841671848770897 0  0.5505824438750014 0.8159828333211079 0  0.06097042075975112 0.2899564099443032 0  0.162441804455353 0.2544585468066967 0  0.2515140598341737 0.8431055049241685 0  1.508091341603097 0.9292987433934674 0  0.3125 0 0  0.3530550570442522 0.06947972340498598 0  1.661411492502874 0.06098752102514014 0  0.2848293132020425 0.4151706867979574 0  1.302321766598192 0.1645086954495226 0  0.8156600088457951 0.2309188807474504 0  0.7 0.45 0  0.6 0.55 0  0.55 0.575 0  1.4 0.45 0  1.45 0.425 0  1.4 0.55 0  1.45 0.575 0  1.571812968831181 0.2861304084233215 0  1.530671578227107 0.06852186336978081 0  0.3630747334266106 0.3046791235976137 0  0.6875 1 0  0.4755617942555476 0.9311001820263514 0  2 0.1875 0  1.35 0.6508409658867128 0  1.595333463987267 0.1690763300181999 0  0.5132280109697771 0.07337192148753263 0  0.07018707600830057 0.3609417193972463 0  0.9375 0 0  0 0.0625 0  0 0.9375 0  1.325515777996516 0.2299455714704491 0  0 0.1875 0  1.660060967657433 0.2966152714601534 0  1.642615142985795 0.6978201027615898 0  0.5794576841249596 0.3299650910486734 0  0.2184968267666885 0.6167843680148617 0  1.813188555186561 0.8074265619392141 0  1.74918685017469 0.9220590235917012 0  1.8125 1 0  1.6875 1 0  1.84538439786796 0.9374701477032144 0  0.985829156030089 0.8680785867537879 0  1.71115653260446 0.42147410231474 0  0.7745858315663394 0.08637237667517719 0  0.8581308326208463 0.9336120648598586 0  1.114299681563871 0.9280047118126826 0  1.156995061722164 0.06331148205342724 0  1.768286804887032 0.1346484358995713 0  1.219879536571258 0.1548077115155514 0  1.273737374357294 0.2912273573052739 0  0.7262626256427063 0.708772642694726 0  0.7683710923653957 0.2812543740322987 0  1.74263903925824 0.06956570012770677 0  0.7757289136414349 0.8503225431286444 0  0.6499999999999999 0.3532805130518777 0  1.0625 1 0  0.45 0.525 0  0.45 0.475 0  0.9626187472125531 0.06266183112941157 0  1.830748432489386 0.2510639858274513 0  1.820709862628178 0.3854853370689849 0  0.5625 0 0  1.667964881073882 0.1832337384052585 0  0.28125 0.05921414769878126 0  0.2467253217
[...]
<PointData  Scalars="f_310"> 
<DataArray  type="Float64"  Name="f_310"  format="ascii">0.0000000000000000e+00  0.0000000000000000e+00  0.0000000000000000e+00  0.0000000000000000e+00  1.0000000000000000e+00  9.9999999999999989e-01  1.0000000000000000e+00  1.0000000000000000e+00  1.0000000000000000e+00  1.0000000000000000e+00  9.9999999999999989e-01  1.0000000000000000e+00  1.0000000000000000e+00  1.0000000000000000e+00  1.0000000000000000e+00  1.0000000000000000e+00  1.0000000000000000e+00  1.0000000000000000e+00  1.0000000000000000e+00  1.0000000000000000e+00  1.0000000000000000e+00  1.0000000000000000e+00  1.0000000000000000e+00  1.0000000000000000e+00  -1.0000000000000000e+00  -1.0000000000000000e+00  -1.0000000000000000e+00  1.0000000000000000e+00  1.0000000000000000e+00  1.0000000000000000e+00  1.0000000000000000e+00  1.0000000000000000e+00  1.0000000000000000e+00  -1.0000000000000000e+00  -1.0000000000000000e+00  -9.9999999999999989e-01  1.0000000000000000e+00  1.0000000000000000e+00  1.0000000000000000e+00  1.0000000000000000e+00  1.0000000000000000e+00  1.0000000000000000e+00  1.0000000000000000e+00  1.0000000000000000e+00  1.0000000000000000e+00  1.0000000000000000e+00  1.0000000000000000e+00  9.9999999999999989e-01  1.0000000000000000e+00  1.0000000000000000e+00  1.0000000000000000e+00  1.0000000000000000e+00  1.0000000000000000e+00  1.0000000000000000e+00  9.9999999999999989e-01  1.0000000000000000e+00  0.0000000000000000e+00  0.0000000000000000e+00  0.0000000000000000e+00  0.0000000000000000e+00  0.0000000000000000e+00  0.0000000000000000e+00  0.0000000000000000e+00  0.0000000000000000e+00  0.0000000000000000e+00  0.0000000000000000e+00  0.0000000000000000e+00  0.0000000000000000e+00  0.0000000000000000e+00  0.0000000000000000e+00  0.0000000000000000e+00  0.0000000000000000e+00  -4.8446386308148251e-02  -5.0494590784978984e-02  -5.0343156420740547e-02  -5.0374120160125199e-02  0.0000000000000000e+00  0.0000000000000000e+00  0.0000000000000000e+00  0.0000000000000000e+00  1.1267880617693987e-01  1.6732992900946192e-01  1.1264254346773682e-01  1.1280315851464517e-01  9.9999999999999989e-01  1.0000000000000000e+00  1.0000000000000000e+00  6.4877530263532809e-02  1.3791061225547163e-01  6.4842627077508749e-02  6.4119744128718528e-02  1.0000000000000000e+00  0.0000000000000000e+00  4.1856688269933368e-01  0.0000000000000000e+00  4.1845935013157343e-01  4.1845090358716736e-01  3.9788334131882502e-01  -1.8844974235245746e-01  -1.7292787587448129e-02  0.0000000000000000e+00  -1.8778550334863658e-01  -1.7338726073493679e-02  -1.8780827220687163e-01  -1.9926363623314187e-02  -1.6038781568662411e-01  0.0000000000000000e+00  0.0000000000000000e+00  0.0000000000000000e+00  2.1536499094150227e-01  0.0000000000000000e+00  0.0000000000000000e+00  0.0000000000000000e+00  -1.9938079588108507e-02  -8.5222588729422493e-03  -4.4429151058861090e-02  -8.3094307523025809e-03  2.0251043803488497e-01  3.3506554798856295e-02  2.4285029584977583e-01  0.0000000000000000e+00  9.9600052582495859e-03  9.9656028021280971e-03  6.8066925539676752e-03  -3.0527673457879978e-01  0.0000000000000000e+00  0.0000000000000000e+00  0.0000000000000000e+00  0.0000000000000000e+00  0.0000000000000000e+00  0.0000000000000000e+00  -1.0000000000000000e+00  -1.0000000000000000e+00  4.8962298638845780e-01  4.6156056709124832e-01  4.6143002808713862e-01  0.0000000000000000e+00  0.0000000000000000e+00  0.0000000000000000e+00  0.0000000000000000e+00  0.0000000000000000e+00  0.0000000000000000e+00  0.0000000000000000e+00  0.0000000000000000e+00  -9.9999999999999989e-01  -1.0000000000000000e+00  1.3821858893133820e-01  1.7869089702209484e-01  4.1796156906522453e-01  5.3439719519480355e-03  1.7798029649361224e-01  1.7862795690482611e-01  1.0000000000000000e+00  3.0312537747589702e-01  5.5583589355117799e-02  -1.0000000000000000e+00  9.9999999999999989e-01  9.9999999999999989e-01  -1.0000000000000000e+00  8.7309092609810304e-02  1.2643946742143319e-01  1.8311714897851014e-01  2.7760042335135909e-01  3.5338920539374258e-01  1.5852821781410076e-01  -2.4906566503952460e-01  4.2140089794522696e-02  1.2306860498808923e-01  4.1619484388764873e-02  3.1212523197992709e-01  3.9018348248668577e-01  3.1218381283616314e-01  -2.3872671292257469e-01  -3.7615578041725845e-01  2.4490737963696163e-02  1.0000000000000000e+00  9.2944383072049899e-02  2.0753714743049059e-02  2.5342216690367743e-02  7.4563218352959995e-02  1.9811166667676215e-02  2.0703088057200555e-02  5.1712651114040817e-02  4.5615244530389329e-02  2.3615661616887364e-02  2.3436031768829187e-02  3.4011573413007777e-02  4.6906308948479247e-02  1.0403776651809234e-01  3.1445407181999857e-01  2.2436807626335469e-02  6.3881290559182236e-02  3.2477541074091676e-01  1.0000000000000000e+00  1.0000000000000000e+00  3.0881250474495658e-01  3.0876266773603611e-01  -9.2486378853920814e-03  1.8408311813756104e-02  4.3504415012171171e-01  3.0446164137719928e-01  6.0584021496024887e-01  1.0000000000000000e+00  -8.9124077048931601e-03  -5.0699835662060733e-01  1.0000000000000000e+00  1.0000000000000000e+00  1.0000000000000000e+00  -2.3219811424893769e-03  -4.9627018256724897e-01  3.3584723645947043e-02  -8.1504027864614890e-03  -4.9442288215906827e-01  0.0000000000000000e+00  0.0000000000000000e+00  -1.9354766803376902e-02  0.0000000000000000e+00  -5.4121534245568625e-01  -5.4195899458236096e-01  3.2071302545759256e-01  1.9737944239864236e-01  3.7454626137810193e-01  6.4087875214981338e-01  6.9907825721248429e-01  6.4087558784970533e-01  1.8342211617670362e-01  0.0000000000000000e+00  1.9451079143662156e-01  6.9902683138232247e-01  0.0000000000000000e+00  2.3102029484240305e-01  -4.0793954021510891e-02  -5.7102301557273383e-01  1.2770778620366541e-01  2.6852867078798259e-02  4.1446800205230228e-01  6.3699359516109910e-01  4.2545467573676297e-02  8.9027526700731136e-02  0.0000000000000000e+00  -7.1891817367609624e-03  0.0000000000000000e+00  6.0622921369536897e-02  3.6261763899545518e-01  6.1342492742668620e-02  1.4692089764431235e-01  6.5763914629212661e-01  1.7488061412277842e-01  -3.6715173075377597e-02  -8.5839411340047217e-02  -3.1819700760456461e-02  -8.5638412571040837e-02  -1.5873813471907715e-02  1.4040973356359626e-01  1.2839747314442764e-02  -3.2509316219547857e-01  -8.5233665610287709e-02  5.0072198728421646e-01  -1.8015203855973125e-01  -8.3118590775357985e-03  -2.3581613335171056e-01  -2.3501952371466381e-01  0.0000000000000000e+00  -6.1330434853459539e-03  4.4640111177105102e-01  -1.2415823468762971e-01  -9.2042762534592287e-02  -1.6551639363413689e-03  -1.5949392010201884e-03  9.1186090864258593e-02  1.2924930276969607e-01  3.4254297030638578e-02  7.4292346100171186e-05  0.0000000000000000e+00  -1.0949346328597623e-03  6.9469867895735301e-04  2.9926142894842517e-01  2.4195003318406097e-01  6.6853678902151037e-01  9.9999999999999989e-01  -1.0000000000000000e+00  -1.0000000000000000e+00  -1.0000000000000000e+00  -1.0000000000000000e+00  -1.0000000000000000e+00  -1.0000000000000000e+00  -1.6897697550044702e-01  -3.2334252974173840e-03  -7.8021232945689495e-02  0.0000000000000000e+00  -2.5200148043751608e-03  0.0000000000000000e+00  1.3292857122946361e-01  -3.2555843790059782e-02  4.9796168683451198e-03  1.8602695764859623e-01  0.0000000000000000e+00  0.0000000000000000e+00  0.0000000000000000e+00  2.5837119787615875e-01  0.0000000000000000e+00  -2.3908546587124265e-02  -6.3521475045911949e-02  -2.6149799983724981e-01  4.3764066086005360e-01  6.9644105851022639e-02  1.3566029643776671e-02  0.0000000000000000e+00  0.0000000000000000e+00  1.4627305195977271e-02  5.4619545245660650e-01  2.9048162769859159e-01  2.0179001532234322e-01  2.0987907849025367e-01  2.4507481895641156e-01  1.9123140341205044e-01  3.1804931923713406e-02  3.7557142487431755e-01  5.5963045415323198e-01  5.5956316612089030e-01  6.9423611032887145e-01  1.1219405966661027e-02  3.5519841732447477e-01  1.2808194863460873e-01  0.0000000000000000e+00  -1.0000000000000000e+00  -1.0000000000000000e+00  2.4189422093191817e-01  1.2570833885763047e-01  4.7379297454135638e-01  0.0000000000000000e+00  -8.2889753550009380e-04  6.9915334155125830e-03  3.6558995871715176e-02  0.0000000000000000e+00  0.0000000000000000e+00  -1.0121490444690521e-02  -2.6424755503457858e-04  7.6792785113258422e-03  2.3001054863350184e-01  7.5251762045101156e-01  0.0000000000000000e+00  3.3471110322200182e-03  -2.0058256999574007e-04  4.3272477104504270e-01  2.5013728132923324e-01  7.1829020323647841e-01  7.1824791473036154e-01  2.4465805574953765e-02  6.5721095325150067e-02  0.0000000000000000e+00  -2.5660308923120090e-01  7.4346702896040881e-02  0.0000000000000000e+00  2.2648783156300226e-01  2.0666838802439569e-01  3.9009630142840879e-01  0.0000000000000000e+00  5.3368515711901612e-02  1.1815304946636270e-02  9.8620808496877446e-02  6.2163276875096130e-01  0.0000000000000000e+00  0.0000000000000000e+00  0.0000000000000000e+00  0.0000000000000000e+00  0.0000000000000000e+00  0.0000000000000000e+00  0.0000000000000000e+00  0.0000000000000000e+00  0.0000000000000000e+00  0.0000000000000000e+00  0.0000000000000000e+00  0.0000000000000000e+00  0.0000000000000000e+00  0.0000000000000000e+00  0.0000000000000000e+00  0.0000000000000000e+00  0.0000000000000000e+00  0.0000000000000000e+00  0.0000000000000000e+00  0.0000000000000000e+00  0.0000000000000000e+00  0.0000000000000000e+00  0.0000000000000000e+00  1.0000000000000000e+00  1.4469143331677802e-02  3.0206910749954574e-01  1.2772874306486853e-01  -6.2633724532398727e-01  2.7143673544783137e-01  1.5906716316932731e-01  2.3248856316153621e-01  9.5149007969571181e-02  5.0458460107626009e-02  -1.0000000000000000e+00  -9.9999999999999989e-01  1.2966965076464032e-01  1.0000000000000000e+00  8.6150037087397175e-03  6.8357529632735603e-01  1.8956233401182029e-01  6.4003462628066210e-01  1.0315930261803736e-02  -2.2026043686354349e-01  2.2388384535743423e-02  7.1975308208616001e-02  4.8775457166176045e-01  -1.6827666422163559e-01  1.3529195410705196e-02  -1.6653863982382163e-03  7.0626282138517363e-02  2.1767504848419722e-01  2.5416845164234415e-02  5.1055151927008512e-02  -6.4995835841771743e-01  3.9278332967091691e-02  4.8338213311398381e-01  4.8366854829960465e-01  -3.6154861125268162e-01  7.5919417097441821e-02  1.1197040498045974e-02  5.3714902146639563e-02  8.3002845700563987e-02  4.5603008154497637e-02  8.7073226016953650e-02  7.5100737233105341e-02  2.9253263203809089e-02  3.4898587641838691e-01  2.3188123597506935e-01  4.5091392768199356e-01  8.4871537801851481e-03  -1.7610020638955332e-01  9.6887338782365384e-02  3.8008960805900278e-02  4.7922814552302538e-02  4.2134700810953057e-01  4.8921530369790245e-02  3.7620037525597838e-02  8.9245606251407761e-02  -4.6838705378529960e-01  1.0000000000000000e+00  7.4685348972749399e-03  2.9205274693894362e-02  -1.0000000000000000e+00  7.6229605465375685e-03  3.0055941110202301e-02  2.3318919526621240e-01  6.6363284118231176e-03  7.2143309083595328e-02  9.3278028916037273e-02  2.4552070391532174e-01  1.0000000000000000e+00  1.4931584042877358e-01  1.1430130263735777e-01  1.0693043685072972e-02  1.1736353739490911e-01  1.9974733036507777e-01  5.2678480072160894e-01  7.8785497307282321e-02  1.4128608134593754e-01  -3.9488439763375383e-01  -8.3435005981562834e-03  -3.3115293668641266e-01  1.3764994005828026e-02  -3.4184138904476202e-01  -2.4423966150011495e-02  5.0927158223560538e-02  3.3695824683027881e-01  2.1086303097159229e-01  6.6861765845678200e-01  7.8542450807909392e-02  1.5987340743155817e-01  3.6549039102200441e-02  3.6191096614049172e-02  3.1345042646232496e-01  1.0291022048607416e-01  -3.1930820775842034e-01  2.5051573764556068e-02  -1.0508919577514159e-01  2.2755717389408495e-01  -1.7970323206153813e-01  2.9407208892959913e-01  -1.3620727449919678e-03  9.2695021739819458e-02  1.6574311619851184e-01  2.0470878472574591e-01  6.1940530536789301e-02  -6.4602361415360066e-01  4.3843342114494227e-01  -2.8649456275490312e-03  6.2518922331832005e-01  -1.2793838328901536e-01  -2.0008868914984379e-01  3.7058600997416835e-01  2.0397518313561414e-01  1.7230731929280368e-01  4.2323127581482478e-01  1.4584486514413200e-01  1.1361062190858731e-02  3.4157488916256390e-02  1.8981029558087947e-02  -7.0574882431469615e-02  -1.0001798274384806e-02  1.8268661754042020e-01  7.9796585683954036e-02  7.8195135576884026e-02  4.7696985991689346e-02  -7.9270134449862542e-02  -1.2138779767218347e-01  -1.6800870592638326e-01  1.8528294132448903e-01  1.6017986132604900e-01  1.2319254331151172e-01  3.4928879737712200e-02  1.0754109750279734e-02  -5.9127382576413569e-03  -4.5212036583879824e-02  -2.0660293914030181e-02  -4.3874674976906947e-02  7.4377248756460458e-03  -1.1732753335614400e-01  5.4472759104056578e-02  1.3226207885150387e-01  1.0000000000000000e+00  1.0000000000000000e+00  -1.0000000000000000e+00  5.8959077869311545e-02  7.0625991310588341e-03  1.9330614042734905e-02  5.2874497497211692e-01  5.5967344163827892e-01  4.5614734062561493e-03  -4.0493973964945681e-02  8.9219158482221582e-03  8.0529814003320943e-01  4.2851338704441126e-02  8.4558470126401830e-03  1.3013480588525225e-01  -1.4381206675497723e-02  1.7626703135621345e-02  8.7803074582403530e-03  5.7176266090736216e-01  -3.1852504313472263e-01  1.1330295374219621e-02  6.6295264808865825e-03  1.7826914867976183e-02  8.3116531727925793e-03  4.7288056185329653e-03  2.1003391971952740e-02  6.5878719698082965e-03  1.9780902277469731e-01  1.7347086944305140e-01  8.0863358789479756e-02  -2.1549085670900900e-01  -2.6467750998098241e-03  -1.3772716446917519e-02  2.9748134727408393e-02  4.3559444561423244e-02  -3.2607959541522635e-01  2.2369344417108419e-01  4.2681665410174300e-03  1.9850749245908003e-02  2.7723043622851846e-02  -9.0117501755034527e-03  -7.2525477912842765e-02  -6.0362790237172259e-01  2.5181756691067503e-01  1.6546022820333784e-02  1.4144117367428261e-01  9.0535343467328042e-02  2.3316876049208574e-01  5.2846316736620613e-01  5.6673885131698387e-01  1.3691198486476955e-01  5.6752083448233737e-01  1.2697608065775420e-01  7.8380292911262328e-01  1.0000000000000000e+00  6.2425232957149220e-03  3.4656313222730599e-02  5.5816690893103107e-02  2.9260080434455515e-01  4.4201364840080665e-01  4.7869267044641856e-01  -1.8359044922178637e-02  5.3291348522028581e-01  -3.4001425032058196e-03  1.4963985097051272e-01  -1.8825869979110510e-02  -2.4511371410868617e-03  -6.3609519519442304e-01  4.4359361196176847e-04  -2.5111712805507532e-03  -9.1148199945849662e-02  1.2805056705813839e-01  7.7053937707747167e-01  6.7490336926134438e-03  -8.5172114797836554e-02  6.0408095255570715e-01  6.0397430027333465e-01  -3.1117100411387993e-01  -1.6504256465963335e-01  3.8626671112948685e-01  1.1647516962858515e-01  1.5493619091839508e-02  4.5226588846723091e-03  -4.4018477743433114e-02  1.8959919354099828e-02  7.8573579860021214e-01  7.3321132308767001e-01  7.0829300673482420e-02  -1.4622850221376724e-01  6.7618148098667774e-01  1.1554868016849047e-01  -1.8057417731484143e-02  -4.0928260175994780e-01  -2.9861921789602242e-01  -1.3076109838531538e-01  -7.7012169225785923e-02  1.0000000000000000e+00  1.0000000000000000e+00  1.0000000000000000e+00  9.9999999999999989e-01  1.0000000000000000e+00  1.0000000000000000e+00  1.0000000000000000e+00  1.0000000000000000e+00  9.9999999999999989e-01  1.0000000000000000e+00  5.7795465842325000e-01  1.0000000000000000e+00  1.0000000000000000e+00  -4.3859798547591236e-03  -4.3847500321083109e-02  4.9808453613913622e-01  6.6975441951498571e-02  -2.8154906812471209e-01  1.1942950852192473e-01  -4.0574128455524204e-03  7.9032663043207141e-01  7.9645905757062874e-01  -7.5736244184527612e-01  -6.9766505015266655e-01  4.3128887653907455e-01  5.2461960541873998e-01  2.0960788872531128e-02  -1.0952715779236331e-01  3.9349288793718391e-03  1.2746987407673074e-01  -2.9195813041479491e-02  -3.5051831303652054e-03  3.5929836433323020e-01  5.3360919599709034e-01  1.8526717779699589e-01  9.4140926062296001e-02  5.4286910247174523e-03  2.2832048216792343e-03  5.7706367789570993e-03  -2.5612458321451936e-02  -1.8806128773967128e-02  3.1511952178454355e-01  -6.5652013651891772e-03  1.5239841448168148e-01  3.2185909842064514e-01  3.5853580496401784e-02  4.4705702271802920e-02  -9.6835960011852393e-02  2.2373566992667973e-02  -2.0858825225232994e-01  -4.2720090690966737e-02  1.9245380465520798e-02  2.8735896994921073e-01  -7.1700212430224564e-01  -6.7921098346069830e-01  -3.3421952815478223e-01  -3.4951823398698526e-02  2.8856133405126841e-02  -6.7999561064667902e-01  2.3434067104325734e-01  8.2820568536146566e-01  3.9714956244761845e-01  0.0000000000000000e+00  1.5658600275476270e-01  1.6920755034625165e-01  -6.1730092270946814e-02  1.1675936041099040e-02  3.8806828127467097e-01  -2.6992009520605070e-01  -3.7026202541964226e-01  -6.4734590498162659e-01  -1.0395212608680801e-01  3.4310220236137390e-01  -8.4293736361194561e-03  3.1586849479394837e-02  1.5132245988715531e-01  1.8493096248227162e-02  0.0000000000000000e+00  3.8056615977811459e-01  3.6076357625761096e-01  -1.5236126259442498e-01  3.6890016697516181e-02  4.7042733742068321e-01  7.5107739608522783e-01  7.3148578840818479e-01  -3.3363988409497930e-01  3.3668814113849310e-01  -5.5966084312477271e-01  -2.3969022423954026e-01  4.6686285787724977e-02  5.7359933427569100e-02  -6.3996457939625190e-02  -1.6748546563724953e-03  8.1062292715759643e-01  2.7490186294275676e-01  3.1096068075723610e-01  2.3372845944894186e-01  9.0958486287344251e-02  5.9181144607608982e-01  4.1733843748659810e-01  3.2784030205651027e-01  3.4903982958928353e-01  1.0786733191842222e-01  1.4428162793068744e-02  -7.2640757124204106e-02  2.3346611231046430e-01  5.3580897317628617e-01  5.8177547044031053e-01  7.9022306147776689e-01  4.7091040155322467e-01  3.1021311081792369e-01  1.2803134677608749e-01  2.9389648066391533e-01  8.4624379273803974e-01  8.4629392059548059e-01  5.3711167097669021e-01  -3.6675861132059846e-02  -7.0119410740822774e-01  -7.9210473683410676e-01  1.5325828271295727e-01  -6.9260790469977196e-01  2.5301176437152895e-01  -4.7600548516768702e-03  1.1456357161620978e-01  5.8817840609798569e-02  4.1393917165478156e-01  -3.3717708529452295e-01  8.0245658818794385e-01  5.4636002403375084e-01  1.5342194294789746e-01  7.6059887969177370e-02  -4.2391951057749941e-02  1.4453137784427883e-01  8.6532897133942979e-02  3.2372863846294780e-01  8.4652735540250754e-02  6.3445194539222238e-01  3.2217324826054711e-01  0.0000000000000000e+00  5.3342971092953849e-02  5.8018026391764774e-02  5.1284123893268072e-02  1.8454740749602933e-02  4.5896637248985801e-02  6.1483049240169139e-02  -2.3285630688321560e-01  -6.7818316703749815e-01  7.8616357773407461e-03  5.2557227041599641e-01  0.0000000000000000e+00  1.2014510336726313e-01  1.9295059716302420e-03  2.7843360729462063e-01  4.4654776905152155e-01  -8.6527173806888874e-02  1.7038834761831831e-01  5.9178166063854298e-01  9.5669606149936429e-02  1.9425465738924483e-01  1.8614643148813614e-01  9.2062694446196428e-02  7.8980569033721103e-03  1.7946953149740309e-02  0.0000000000000000e+00  1.0856168489971076e-01  -3.4831127506905146e-02  6.3037648870746893e-02  8.3898607507745804e-01  6.0657668932616071e-01  3.8855952706788949e-01  6.5434155867160157e-02  5.4431843476677766e-01  3.4358448799356997e-02  -3.8300149288092333e-01  -2.9945858652978719e-01  1.5694748828704105e-01  4.5509041870229749e-01  0.0000000000000000e+00  -2.2338294937245956e-03  5.0692460503513274e-02  -4.4555760714816546e-02  -1.1310371313235015e-01  -7.5195105072054136e-01  -7.4916824828999740e-01  2.8458771113868631e-01  3.9440512664392274e-02  6.2035927127174595e-01  3.0176572123012635e-01  5.3218571602300346e-01  6.9905290345655224e-01  0.0000000000000000e+00  -8.0947036853451608e-03  4.9333795446830520e-01  -2.6632253411054642e-03  3.0547187654814042e-04  2.0714410774301209e-02  9.5756803082283175e-03  6.0173571001593028e-03  3.0505356294076091e-01  1.3146161742692467e-01  3.9637082347862923e-02  4.3905884307