<?xml version="1.0"?>
<VTKFile type="UnstructuredGrid"  version="0.1"  >
<UnstructuredGrid>
<Piece  NumberOfPoints="17661" NumberOfCells="34505">
<Points>
<DataArray  type="Float64"  NumberOfComponents="3"  format="ascii">0 1 0  0 0 0  2 0 0  2 1 0  0.2475528258147577 0.5154508497187473 0  0.25 0.5 0  0.2475528258147577 0.4845491502812526 0  0.2404508497187474 0.4706107373853763 0  0.2293892626146237 0.4595491502812526 0  0.2154508497187474 0.4524471741852423 0  0.2 0.45 0  0.1845491502812526 0.4524471741852423 0  0.1706107373853764 0.4595491502812526 0  0.1595491502812526 0.4706107373853763 0  0.1524471741852423 0.4845491502812527 0  0.15 0.5 0  0.1524471741852423 0.5154508497187473 0  0.1595491502812526 0.5293892626146237 0  0.1706107373853764 0.5404508497187474 0  0.1845491502812527 0.5475528258147577 0  0.2 0.55 0  0.2154508497187474 0.5475528258147577 0  0.2293892626146237 0.5404508497187474 0  0.2404508497187474 0.5293892626146237 0  0.4 0.5 0  0.6 0.6 0  0.6 0.4 0  1 0.8 0  1.3 0.6 0  1.3 0.4 0  1 0.2 0  0.7 0.4 0  0.7 0.6 0  1.4 0.6 0  1.6 0.5 0  1.4 0.4 0  1.847552825814758 0.5154508497187473 0  1.85 0.5 0  1.847552825814758 0.4845491502812526 0  1.840450849718748 0.4706107373853763 0  1.829389262614624 0.4595491502812526 0  1.815450849718747 0.4524471741852423 0  1.8 0.45 0  1.784549150281253 0.4524471741852423 0  1.770610737385376 0.4595491502812526 0  1.759549150281253 0.4706107373853763 0  1.752447174185242 0.4845491502812527 0  1.75 0.5 0  1.752447174185242 0.5154508497187473 0  1.759549150281253 0.5293892626146237 0  1.770610737385376 0.5404508497187474 0  1.784549150281253 0.5475528258147577 0  1.8 0.55 0  1.815450849718747 0.5475528258147577 0  1.829389262614624 0.5404508497187474 0  1.840450849718748 0.5293892626146237 0  1 0 0  1 1 0  0 0.5 0  2 0.5 0  0.5 0 0  1.5 0 0  1.5 1 0  0.5 1 0  1.75 0 0  1.75 1 0  0.25 1 0  0.25 0 0  1.25 0 0  0.75 0 0  0.75 1 0  1.25 1 0  0.3725554334277117 0.7642666300283135 0  0.375 0.235 0  1.625 0.235 0  1.625 0.765 0  0 0.25 0  0 0.75 0  2 0.75 0  2 0.25 0  0.625 0.81875 0  0.6499999999999999 0.190625 0  1.375 0.8187500000000001 0  1.375 0.18125 0  1.15 0.7 0  1.15 0.3 0  0.85 0.7 0  1.814791666666667 0.1852083333333333 0  1.811730769230769 0.7382692307692308 0  0.1852083333333333 0.1852083333333334 0  0.1840244119319019 0.815975588068098 0  0.85 0.3 0  2 0.875 0  1.152272727272727 0.1340909090909091 0  0.875 0 0  1.152272727272727 0.8659090909090909 0  0.8477272727272727 0.8659090909090909 0  0.8025975318471337 0.1491341560509555 0  0.5140763145316528 0.7206234211963826 0  0.4901224013758102 0.8594594147419381 0  1.875 1 0  1.48464960456942 0.2795221880492092 0  1.51016818730963 0.1407409912480207 0  1.48464960456942 0.7204778119507909 0  1.517998509539161 0.858828994435724 0  0.5218371613039796 0.2706765982218459 0  0.375 1 0  1.625 0 0  0 0.625 0  0.1279662324777819 0.3186873708662855 0  2 0.375 0  2 0.625 0  1.625 1 0  0.4762884050256251 0.1381321303327793 0  1.66715200204435 0.3671520020443497 0  0.3411194216097047 0.3718755262632354 0  1.66715200204435 0.6328479979556505 0  0.2293375031488215 0.6852297049426554 0  1.8125 0.8765958288588708 0  1.828700169805353 0.318794259420021 0  0.375 0 0  0.3030849358974359 0.1225080128205128 0  1.696915064102564 0.1225080128205128 0  0.3125 0.8827687679325231 0  0.4100587955541826 0.6346030229804038 0  2 0.125 0  1.875 0 0  0.125 0 0  0 0.125 0  0.125 1 0  0 0.875 0  0.5 0.45 0  0.5 0.55 0  1.278149224806201 0.7297238372093023 0  1.250775615004007 0.2184103757970662 0  0.7492243849959929 0.7815896242029338 0  1.125 1 0  1.375 0 0  1.375 1 0  0.625 0 0  0.625 1 0  1.125 0 0  0.875 1 0  0 0.375 0  1.5 0.55 0  1.5 0.45 0  0.2480454145864052 0.2911694084917106 0  0.1061636102285989 0.6875 0  0.9172520139947967 0.112654991253252 0  1.682026291298303 0.8825000000000001 0  0.6499999999999999 0.7050892857142856 0  1.35 0.2949107142857143 0  0.7749999999999999 0.35 0  1.263701301081917 0.8426362379684855 0  1.901952516101588 0.8069329477617702 0  0.6 0.5 0  0.7 0.5 0  1.3 0.5 0  1.4 0.5 0  1.727600713014309 0.2750723856898529 0  1.3125 0.09062500000000001 0  0.7142592324977534 0.8909203568981011 0  1.883829473776445 0.6450078637524899 0  0.6830874463519312 0.2933811695278971 0  0.7070263916632118 0.0989984759544718 0  0.4316959974368003 0.3216648344694547 0  1.380950802730399 0.7150815420254574 0  0.3065181328757786 0.6128678607000935 0  0.5818077415991646 0.1026164027410931 0  0.9375 0.9174691833590138 0  1.047116689280869 0.9 0  1.0625 0.08253081664098619 0  1.575831396629752 0.676518355006118 0  1.55888866349099 0.3587674601363565 0  1.4375 0.9202987442070407 0  0.925 0.25 0  1.898145355082274 0.2440468520852883 0  0.2101839610042735 0.09000834668803417 0  0.1061033326390469 0.1135790505786181 0  0.09544599273732228 0.2257275858847144 0  1.8125 0.08207278777652795 0  0.217966377040559 0.9076457089970479 0  0.2738344022609309 0.7738762677729314 0  0.0814316252519587 0.8125 0  1.4375 0.07525327865218089 0  0.5625 0.9249899135948225 0  1.904586244829915 0.1464615224468097 0  1.744016930730878 0.8078112236212321 0  1.336236868906671 0.909375 0  1.776885324280126 0.6459403188375784 0  0.1202836912147299 0.9022840281039533 0  1.708781716491081 0.7189249933309093 0  1.904101394003999 0.3958986059960003 0  1.225 0.35 0  0.7749999999999999 0.6499999999999999 0  0.07245832196556974 0.5649857308297664 0  0.07245832196556991 0.4350142691702333 0  1.600155803939286 0.09694604053970658 0  1.906498832379319 0.9050341767410571 0  0.7395198302319537 0.2185048068670455 0  1.929319135268518 0.5624131848615803 0  1.192971893151267 0.7823814560091357 0  1.075 0.75 0  0.4061659433429421 0.9081082988297638 0  0.5132215234690947 0.360618740666639 0  1.225 0.6499999999999999 0  0.925 0.75 0  1.075 0.25 0  0.5512900568072264 0.1864565208394959 0  1.581167620911809 0.5873352418236175 0  0.2885057759523771 0.2110616359185661 0  1.593994717940027 0.9123639132241911 0  0.4212267295746058 0.4095812569963867 0  1.9375 0 0  2 0.0625 0  0.3881495246442013 0.1473603292365287 0  0.4375 0 0  0.5203951145825836 0.634209770834833 0  1.479544041656137 0.6340880833122748 0  1.755651787083367 0.3687822938381424 0  1.224765949825823 0.08426701736150129 0  0.2206585476125226 0.3695670637204487 0  1.07506901412899 0.1645795091318676 0  1.151136363636364 0.2170454545454546 0  0.9249309858710097 0.8354204908681324 0  0.7900036951255988 0.9264973001454673 0  1.1875 1 0  1.221344379396217 0.918226669561771 0  0.8488636363636364 0.7829545454545455 0  2 0.3125 0  0.8425886855399499 0.07640702899038848 0  0.3451973255788813 0.6860982230385505 0  1.477176894376523 0.3706462112469538 0  1.892277940918713 0.7260390202279857 0  0.6053223777592734 0.2617163340157894 0  0.1366572879283138 0.6132172689980417 0  0.8767669976572787 0.183829901696625 0  1.734312916462054 0.194354217051338 0  0.6358370118041781 0.8966293729975513 0  0.0625 0 0  0.4254296797826017 0.07790150880037369 0  0.0625 1 0  0.325 0.480201944959433 0  1.92581980103314 0.4721133056178217 0  1.675 0.480201944959433 0  1.68664354441175 0.5573253462218921 0  1.082179034295607 0.8289260983483835 0  1.904764711899212 0.3198299058827855 0  0.4168432122069987 0.8297658089581273 0  0.4566447213929462 0.2189812831651196 0  1.591685173164597 0.8349342830268984 0  1.533749638400075 0.7818373685814323 0  1.455696077414499 0.8059760010402454 0  0.1686918926316089 0.7374366337613715 0  1.90625 0.06990635764468446 0  1.620885539353526 0.4271612268364069 0  1.542504721969586 0.2184236464568206 0  0.9949252774665426 0.1219386785908539 0  0.4338464485831625 0.7117387264759969 0  0.5863598564893037 0.7506712216607603 0  1.416648798464286 0.327639446233766 0  0.5838428563156408 0.6721266313560732 0  2 0.6875 0  1.412978141476274 0.249183169093648 0  0.1442761096606068 0.3906357074122901 0  0.3464733991224566 0.550813757819126 0  0.4672496122382359 0.7767891610807409 0  1.449528495155154 0.1841671848770897 0  0.5505824438750014 0.8159828333211079 0  0.06097042075975112 0.2899564099443032 0  0.162441804455353 0.2544585468066967 0  0.2515140598341737 0.8431055049241685 0  1.508091341603097 0.9292987433934674 0  0.3125 0 0  0.3530550570442522 0.06947972340498598 0  1.661411492502874 0.06098752102514014 0  0.2848293132020425 0.4151706867979574 0  1.302321766598192 0.1645086954495226 0  0.8156600088457951 0.2309188807474504 0  0.7 0.45 0  0.6 0.55 0  0.55 0.575 0  1.4 0.45 0  1.45 0.425 0  1.4 0.55 0  1.45 0.575 0  1.571812968831181 0.2861304084233215 0  1.530671578227107 0.06852186336978081 0  0.3630747334266106 0.3046791235976137 0  0.6875 1 0  0.4755617942555476 0.9311001820263514 0  2 0.1875 0  1.35 0.6508409658867128 0  1.595333463987267 0.1690763300181999 0  0.5132280109697771 0.07337192148753263 0  0.07018707600830057 0.3609417193972463 0  0.9375 0 0  0 0.0625 0  0 0.9375 0  1.325515777996516 0.2299455714704491 0  0 0.1875 0  1.660060967657433 0.2966152714601534 0  1.642615142985795 0.6978201027615898 0  0.5794576841249596 0.3299650910486734 0  0.2184968267666885 0.6167843680148617 0  1.813188555186561 0.8074265619392141 0  1.74918685017469 0.9220590235917012 0  1.8125 1 0  1.6875 1 0  1.84538439786796 0.9374701477032144 0  0.985829156030089 0.8680785867537879 0  1.71115653260446 0.42147410231474 0  0.7745858315663394 0.08637237667517719 0  0.8581308326208463 0.9336120648598586 0  1.114299681563871 0.9280047118126826 0  1.156995061722164 0.06331148205342724 0  1.768286804887032 0.1346484358995713 0  1.219879536571258 0.1548077115155514 0  1.273737374357294 0.2912273573052739 0  0.7262626256427063 0.708772642694726 0  0.7683710923653957 0.2812543740322987 0  1.74263903925824 0.06956570012770677 0  0.7757289136414349 0.8503225431286444 0  0.6499999999999999 0.3532805130518777 0  1.0625 1 0  0.45 0.525 0  0.45 0.475 0  0.9626187472125531 0.06266183112941157 0  1.830748432489386 0.2510639858274513 0  1.820709862628178 0.3854853370689849 0  0.5625 0 0  1.667964881073882 0.1832337384052585 0  0.28125 0.05921414769878126 0  0.2467253217
[...]
<PointData  Vectors="f_335"> 
<DataArray  type="Float64"  Name="f_335"  NumberOfComponents="3" format="ascii">-6.7870764270970422e-04 1.8594168009275635e-04 0.0000000000000000e+00  9.5199569416518758e-03 9.6342677879912055e-03 0.0000000000000000e+00  2.1851512545124738e-03 -1.9079140937300889e-03 0.0000000000000000e+00  -1.0674335120866907e-02 -1.0497607259021375e-02 0.0000000000000000e+00  1.5866971788164950e+01 5.0675937529396649e+00 0.0000000000000000e+00  1.6900454952575842e+01 2.5072186439211018e-02 0.0000000000000000e+00  1.6097582552632129e+01 -4.7257619694460447e+00 0.0000000000000000e+00  1.2551541930493675e+01 -9.3028372926806764e+00 0.0000000000000000e+00  8.5532014651540500e+00 -1.1235887585084678e+01 0.0000000000000000e+00  4.3182288114265504e+00 -1.2815049600237348e+01 0.0000000000000000e+00  -1.6650923147521723e-01 -1.2138272890596435e+01 0.0000000000000000e+00  -3.5772716730889789e+00 -1.1516641314790759e+01 0.0000000000000000e+00  -6.8665755731738800e+00 -9.9033026228790533e+00 0.0000000000000000e+00  -9.9600271103732112e+00 -6.8913848920851573e+00 0.0000000000000000e+00  -1.1491276183281441e+01 -3.0456798145662098e+00 0.0000000000000000e+00  -1.2276678861978510e+01 3.9316287346242357e-01 0.0000000000000000e+00  -1.1406521074604159e+01 3.5121497228879166e+00 0.0000000000000000e+00  -9.4424391104954619e+00 7.2601939638122133e+00 0.0000000000000000e+00  -6.8958279571838723e+00 9.4940100205691103e+00 0.0000000000000000e+00  -3.5140990303705295e+00 1.1095936201046262e+01 0.0000000000000000e+00  -5.8261214971221309e-01 1.2047962834350987e+01 0.0000000000000000e+00  3.8937535492046740e+00 1.2290153537116611e+01 0.0000000000000000e+00  9.2210331673729318e+00 1.1603123866258576e+01 0.0000000000000000e+00  1.2759398743418283e+01 9.2187296114081860e+00 0.0000000000000000e+00  1.7419940024772909e+01 1.2452291817707070e-01 0.0000000000000000e+00  -1.5372926335284296e+01 -1.9551540465639466e+01 0.0000000000000000e+00  -1.5652745723310373e+01 1.7709679808799692e+01 0.0000000000000000e+00  -9.0641267004763479e-02 9.6655555805646518e+00 0.0000000000000000e+00  1.9725931619422916e+01 1.0110925684917229e+01 0.0000000000000000e+00  2.0588973179189431e+01 -8.6217354683882323e+00 0.0000000000000000e+00  -8.7076985503418886e-02 -9.5531061816943019e+00 0.0000000000000000e+00  -1.9923218124648983e+01 -8.7536563117628869e+00 0.0000000000000000e+00  -2.0753577360578888e+01 9.0606511947516051e+00 0.0000000000000000e+00  1.4316226120445817e+01 -1.7758401184703374e+01 0.0000000000000000e+00  -1.7742329536386926e+01 -4.0893549166659958e-02 0.0000000000000000e+00  1.6768775235040973e+01 2.3408346659804383e+01 0.0000000000000000e+00  1.1807347143067492e+01 3.5631752603433657e+00 0.0000000000000000e+00  1.1901086592570630e+01 1.1318037225388060e-01 0.0000000000000000e+00  1.1472649832676616e+01 -3.6478380510649013e+00 0.0000000000000000e+00  9.6164273987221911e+00 -6.8699888564159659e+00 0.0000000000000000e+00  6.9273690954645950e+00 -9.4154854452295549e+00 0.0000000000000000e+00  3.6846706214008047e+00 -1.1516884701877720e+01 0.0000000000000000e+00  -3.3924721748505055e-02 -1.2087253534357263e+01 0.0000000000000000e+00  -3.9185849391428662e+00 -1.2333837279171826e+01 0.0000000000000000e+00  -8.6217392979623995e+00 -1.1436001536679068e+01 0.0000000000000000e+00  -1.2386663895859817e+01 -9.4036793565388521e+00 0.0000000000000000e+00  -1.5970845529366233e+01 -4.5121377553594320e+00 0.0000000000000000e+00  -1.7137120476793275e+01 -3.6383947599513237e-02 0.0000000000000000e+00  -1.5758389533950641e+01 5.2026695169455737e+00 0.0000000000000000e+00  -1.2716195688503355e+01 8.9162376240385353e+00 0.0000000000000000e+00  -8.3882737080644159e+00 1.1642992036927097e+01 0.0000000000000000e+00  -4.4128149155526657e+00 1.2633822833829388e+01 0.0000000000000000e+00  -2.1805782533451362e-01 1.2438888938340304e+01 0.0000000000000000e+00  3.9585845249573008e+00 1.1482726697262319e+01 0.0000000000000000e+00  6.9200276263285261e+00 9.9240679253368000e+00 0.0000000000000000e+00  1.0059197024365032e+01 7.3347945406017736e+00 0.0000000000000000e+00  -3.9981138419154340e-04 -3.8675173011386637e+00 0.0000000000000000e+00  -7.7390806871903016e-04 3.8666064221951331e+00 0.0000000000000000e+00  -4.7263682971521908e+00 -2.8037361122350236e-03 0.0000000000000000e+00  4.7305669505453860e+00 -4.8441780011440607e-03 0.0000000000000000e+00  3.7164617352506272e-03 -7.0997735566821984e-02 0.0000000000000000e+00  9.3282815497173419e-03 -6.6783791786715729e-02 0.0000000000000000e+00  -2.4232077243296450e-03 6.5511456275614402e-02 0.0000000000000000e+00  6.2240239638802156e-03 6.6573752761912491e-02 0.0000000000000000e+00  8.1264630893841203e-03 -1.5797403403154575e-01 0.0000000000000000e+00  7.9526394259772139e-04 1.6044626299098125e-01 0.0000000000000000e+00  -2.4578236577940671e-04 1.6218620756339647e-01 0.0000000000000000e+00  1.8667018323302309e-03 -1.6223794126100513e-01 0.0000000000000000e+00  6.8253975794708415e-03 -2.0770297227075099e+00 0.0000000000000000e+00  4.4436154849892542e-03 -2.0290773669869671e+00 0.0000000000000000e+00  -2.1123116419901803e-04 2.1089381132680738e+00 0.0000000000000000e+00  -4.4456563761497399e-03 2.0850611267200692e+00 0.0000000000000000e+00  1.0238502023344946e+00 -5.7923092528500975e-01 0.0000000000000000e+00  9.8679434563767887e-01 5.6666245071573573e-01 0.0000000000000000e+00  -9.9640095184323352e-01 5.6894240419982622e-01 0.0000000000000000e+00  -1.0046787865461955e+00 -5.6222262575342552e-01 0.0000000000000000e+00  -1.1054553302063621e+00 5.2751911988313839e-03 0.0000000000000000e+00  -1.0963292318318538e+00 -9.5270184527804864e-04 0.0000000000000000e+00  1.1195411752724704e+00 -1.4282027093250105e-02 0.0000000000000000e+00  1.1043592041516017e+00 6.0572206985507453e-03 0.0000000000000000e+00  -1.8848455658323544e+00 1.5189085953865075e-01 0.0000000000000000e+00  -2.1912807867384330e+00 -5.1022936679210984e-01 0.0000000000000000e+00  1.8848533737020408e+00 1.8541710156940977e-01 0.0000000000000000e+00  1.8837324091613739e+00 -1.6171361815997340e-01 0.0000000000000000e+00  2.5116266347715093e+00 3.7741385002961159e+00 0.0000000000000000e+00  2.5122441190276064e+00 -3.7640844637981874e+00 0.0000000000000000e+00  -2.5030378257821253e+00 3.7568039836135392e+00 0.0000000000000000e+00  -8.9091069661300898e-02 -6.4998568524868527e-01 0.0000000000000000e+00  -2.3575731852550347e-01 1.3292214650718519e+00 0.0000000000000000e+00  9.8344681289178490e-02 -6.4736693374606857e-01 0.0000000000000000e+00  9.5762706457734229e-02 6.4511943722847553e-01 0.0000000000000000e+00  -2.5219234878862564e+00 -3.7780122407399692e+00 0.0000000000000000e+00  3.1306433083167889e-01 -2.3136662020805322e-03 0.0000000000000000e+00  1.3273153520620040e+00 -3.2499910891792094e+00 0.0000000000000000e+00  -7.6614361875135056e-04 -3.3083827116714790e+00 0.0000000000000000e+00  1.3153720956014037e+00 3.2455751056469158e+00 0.0000000000000000e+00  -1.3075866590164631e+00 3.2337154508682873e+00 0.0000000000000000e+00  -1.5958510348284562e+00 -2.7856227868952290e+00 0.0000000000000000e+00  -6.1144089442177718e-01 -2.6064300447882434e+00 0.0000000000000000e+00  -3.4920663676872965e-01 -4.5978108736155443e-01 0.0000000000000000e+00  -3.4863175461497849e-04 2.0557557641457871e-01 0.0000000000000000e+00  6.9878367202917524e-01 2.6716096278776260e+00 0.0000000000000000e+00  3.2897402706376250e-01 4.6976685628791515e-01 0.0000000000000000e+00  6.1203652448437174e-01 -2.6860337013744831e+00 0.0000000000000000e+00  2.7485383993544343e-01 -4.8075810246853334e-01 0.0000000000000000e+00  -8.2893789487360503e-01 2.4531473496755121e+00 0.0000000000000000e+00  6.4129801447513734e-04 -3.5299093640336600e-02 0.0000000000000000e+00  8.4969937123613264e-04 3.2206630370053155e-02 0.0000000000000000e+00  -2.9677712076390801e+00 2.0092034144438824e-02 0.0000000000000000e+00  -1.0541429431731903e+00 -1.9767763073143312e+00 0.0000000000000000e+00  2.9440158985787215e+00 1.6657106684666571e-02 0.0000000000000000e+00  2.9761070089258870e+00 7.0217663881712425e-02 0.0000000000000000e+00  3.2378947757168483e-04 -3.4620146563589402e-02 0.0000000000000000e+00  -2.3891494301134550e-01 4.4247586092361280e-01 0.0000000000000000e+00  -4.1695805321654680e+00 6.4951192600522329e-03 0.0000000000000000e+00  4.3447265253938401e+00 2.7236414706516093e-01 0.0000000000000000e+00  -4.1611587583553566e+00 4.0571389271091482e-02 0.0000000000000000e+00  1.1928079051396590e+00 2.0637271216557855e+00 0.0000000000000000e+00  -6.1594960924839813e-02 3.8706690415580686e-01 0.0000000000000000e+00  1.1871200443085464e-01 -2.3232305038506378e+00 0.0000000000000000e+00  -1.5606130129247097e-03 3.6971974374498673e-02 0.0000000000000000e+00  2.8917787594521421e-01 -9.1318964155235091e-02 0.0000000000000000e+00  -2.9511705366448937e-01 -1.0124060196414383e-01 0.0000000000000000e+00  2.7367257368475673e-01 5.3814434299266814e-02 0.0000000000000000e+00  3.3412093251498178e+00 -2.5904302032088804e+00 0.0000000000000000e+00  3.2612323106663726e-01 1.9131437020375257e-03 0.0000000000000000e+00  -7.5571429165251580e-05 -2.0473407770474220e-01 0.0000000000000000e+00  6.2300055469770126e-04 -2.0427949245201305e-01 0.0000000000000000e+00  -3.2398813972976692e-01 -3.3992451970219124e-04 0.0000000000000000e+00  -3.8391682293089757e-04 2.0439582295201239e-01 0.0000000000000000e+00  -3.2767284445635436e-01 -1.8060413775623937e-03 0.0000000000000000e+00  3.0378708783781891e+00 6.0453477251168977e+00 0.0000000000000000e+00  3.0307956094333566e+00 -6.0553002439858075e+00 0.0000000000000000e+00  4.0066932723809900e+00 2.2972832763411177e+00 0.0000000000000000e+00  2.7329435674855538e+00 -2.3235554548166699e+00 0.0000000000000000e+00  -2.6769410435699439e+00 2.3201392111486001e+00 0.0000000000000000e+00  1.9220113851482021e-03 3.2894578857479280e+00 0.0000000000000000e+00  2.8208046332453317e-03 -8.2933391593508643e-01 0.0000000000000000e+00  1.2855514588366475e-03 8.3086667746856702e-01 0.0000000000000000e+00  7.4627722336765637e-03 -7.9658757616970022e-01 0.0000000000000000e+00  2.0121348189832957e-03 8.0657159993068550e-01 0.0000000000000000e+00  -7.5943684661551334e-03 -3.2842051457772707e+00 0.0000000000000000e+00  -1.3297024987569191e-03 3.2957414532281479e+00 0.0000000000000000e+00  -3.0019481912433634e+00 1.7674740632961174e-02 0.0000000000000000e+00  -3.0143860920904073e+00 -6.0538410176131974e+00 0.0000000000000000e+00  -3.0274988697732477e+00 6.0515889421369975e+00 0.0000000000000000e+00  1.2538388024201990e+00 -1.3867650814068613e+00 0.0000000000000000e+00  -1.2658868718343670e+00 1.5964892399839010e+00 0.0000000000000000e+00  -8.6027149887246013e-01 -3.9048251042383075e+00 0.0000000000000000e+00  -2.7396243557405908e-01 3.6548923796810039e-02 0.0000000000000000e+00  -5.2786277696033244e+00 -3.6823072226570058e-01 0.0000000000000000e+00  5.2300616557104824e+00 3.6769306396528029e-01 0.0000000000000000e+00  -3.3923848267094678e+00 -5.1063003237684814e+00 0.0000000000000000e+00  1.8288048451438383e+00 1.9504980628776725e+00 0.0000000000000000e+00  4.0822614017448539e-01 5.3761661541329986e-01 0.0000000000000000e+00  -2.0200058245174464e+01 -7.9853621249236775e-04 0.0000000000000000e+00  -1.9838874412762063e+01 1.6173812893278703e-04 0.0000000000000000e+00  1.9835785174963959e+01 -2.1806821168481312e-03 0.0000000000000000e+00  2.0203407030494578e+01 1.0413481504773980e-03 0.0000000000000000e+00  -1.3439427507631552e+00 -8.7876754175113792e-01 0.0000000000000000e+00  9.6693185281054495e-01 -1.3459325110851790e+00 0.0000000000000000e+00  -1.1966515679279390e+00 1.6492826131939986e+00 0.0000000000000000e+00  1.8731966944803942e+00 2.3706627807524328e+00 0.0000000000000000e+00  -5.2528353489806126e+00 -1.2272478673478036e+00 0.0000000000000000e+00  -1.0887966955522066e+00 -1.5872880099346771e+00 0.0000000000000000e+00  1.8649019705712722e+00 2.3735540199938368e+00 0.0000000000000000e+00  4.1777766067904842e+00 -1.4972236255388027e+00 0.0000000000000000e+00  4.8515085814868071e+00 1.2206642493008912e+00 0.0000000000000000e+00  -7.4064347234114081e-01 -2.4299528337857790e-01 0.0000000000000000e+00  -4.7224723573566352e-01 3.9321839860292283e+00 0.0000000000000000e+00  4.6231345089589559e-01 4.1665088778378347e+00 0.0000000000000000e+00  4.7149728297864746e-01 -3.9393938664946826e+00 0.0000000000000000e+00  -2.0654330748575642e+00 -2.3130064242706170e+00 0.0000000000000000e+00  -2.5127725732309192e+00 3.3604169399224499e+00 0.0000000000000000e+00  4.9484384135480092e-01 1.9806847988955170e-01 0.0000000000000000e+00  -2.6121032220911342e+00 -3.8951057009430792e+00 0.0000000000000000e+00  6.5109037080226650e-01 -8.6796758269589191e-01 0.0000000000000000e+00  8.3931314492606809e-02 -2.8263346039286469e-01 0.0000000000000000e+00  -1.5776228087857358e-01 -3.0053911395403066e-01 0.0000000000000000e+00  -5.8143125336610779e-01 -7.1010082830939669e-01 0.0000000000000000e+00  -3.4563370910571899e-02 -2.8604205276520173e-01 0.0000000000000000e+00  9.8179590789693627e-02 2.7417373744302415e-01 0.0000000000000000e+00  8.4912508737014680e-01 5.3019056966667910e-01 0.0000000000000000e+00  -4.7022317782116690e-01 4.4298234554346694e-01 0.0000000000000000e+00  4.6649807560001705e-01 -2.2630164110761183e-01 0.0000000000000000e+00  -4.8311194172598282e-01 2.2853362972882263e-01 0.0000000000000000e+00  2.6383270970178446e-01 -3.6192642764094674e-01 0.0000000000000000e+00  -5.1566257218897238e-01 4.6935139567137785e-01 0.0000000000000000e+00  9.1244462880443900e-01 1.1027348616449590e+00 0.0000000000000000e+00  -1.5388366583120723e+00 3.2555989166252055e+00 0.0000000000000000e+00  -1.0046901440919302e-01 2.8414251123888318e-01 0.0000000000000000e+00  -1.6188314606695262e+00 6.8888498813845900e-01 0.0000000000000000e+00  3.2703599370853786e+00 -2.3147345934894430e+00 0.0000000000000000e+00  3.3479960780991154e+00 -5.0456443710328340e+00 0.0000000000000000e+00  -3.3938745068585625e+00 5.1612509886933076e+00 0.0000000000000000e+00  -4.5711996376318513e+00 1.4798551302114662e+00 0.0000000000000000e+00  -4.6105983200171226e+00 -1.5511048468991675e+00 0.0000000000000000e+00  -9.9751833653064101e-02 1.7238668203155907e-01 0.0000000000000000e+00  1.4203754931375612e-01 2.4108108278923349e-01 0.0000000000000000e+00  -2.7410491914851045e+00 -2.1982728352209566e+00 0.0000000000000000e+00  4.5267491201738563e+00 1.4109100385830744e+00 0.0000000000000000e+00  2.3795666816179013e+00 3.0624199041505862e+00 0.0000000000000000e+00  2.5961108296339304e+00 3.8890835693236001e+00 0.0000000000000000e+00  7.1493632419492983e-02 -1.7983587268711054e-01 0.0000000000000000e+00  8.3580796126205470e-01 5.1586125228295439e+00 0.0000000000000000e+00  3.4200830113589373e+00 4.9975377762364914e+00 0.0000000000000000e+00  -2.5831625729332366e+00 3.8889122221688668e+00 0.0000000000000000e+00  2.5841235391461450e+00 -3.8826418336142363e+00 0.0000000000000000e+00  -1.1450206553415454e+00 6.7763988379060514e-01 0.0000000000000000e+00  -4.5327920277171270e+00 -4.1487857270315294e+00 0.0000000000000000e+00  7.9295331274703096e-01 -3.3029846291324183e-01 0.0000000000000000e+00  -6.5920659126676939e-02 -1.6321900567676989e-01 0.0000000000000000e+00  4.3904177816212746e+00 4.1337553282146233e+00 0.0000000000000000e+00  -1.6529837921437005e-03 -1.2257477534094589e-01 0.0000000000000000e+00  1.2953116123808939e-01 -1.5849983118059606e-03 0.0000000000000000e+00  2.9942396684846656e-01 3.0500427050240442e-01 0.0000000000000000e+00  -8.6552130870218638e-04 5.4352136834782086e-02 0.0000000000000000e+00  6.5819871356073512e-01 -5.6951230927001752e+00 0.0000000000000000e+00  -6.5982741593818017e-01 -5.6514871260444650e+00 0.0000000000000000e+00  -2.5900056552714648e+00 -3.4950633267347437e+00 0.0000000000000000e+00  8.8287659462553625e-01 -2.3453550343207472e+00 0.0000000000000000e+00  1.6305120124220045e+00 -4.0169160002796467e+00 0.0000000000000000e+00  1.4726358613443074e+00 -4.2722516933386645e+00 0.0000000000000000e+00  2.1877033333039737e+00 -3.4586667276577345e+00 0.0000000000000000e+00  -1.5127936855227784e+00 4.3292100994787130e+00 0.0000000000000000e+00  -7.7821518669688416e-01 2.5302962962947886e+00 0.0000000000000000e+00  5.0565322674549053e-03 2.7117402837378992e+00 0.0000000000000000e+00  8.7054052036577645e-01 2.4118114276282854e+00 0.0000000000000000e+00  -2.1962056547428395e+00 3.4509751626734810e+00 0.0000000000000000e+00  1.8554577973631303e+00 1.3221611110969219e-02 0.0000000000000000e+00  -7.3735806211242660e-01 -3.0691780847613774e+00 0.0000000000000000e+00  2.5281727545920774e+00 -3.0135903316954349e-01 0.0000000000000000e+00  -9.3908759306638667e-01 5.9364689870566067e+00 0.0000000000000000e+00  8.4624196439979649e-01 1.1686997989582246e+00 0.0000000000000000e+00  -3.1580523941556868e+00 1.3597930840264436e+00 0.0000000000000000e+00  -2.2618338935081650e+00 3.6140222662188752e+00 0.0000000000000000e+00  -1.8329803827449895e+00 -3.6844244189034834e+00 0.0000000000000000e+00  -5.6867495271077029e-01 -4.2580974962909912e-01 0.0000000000000000e+00  -9.9997623944324876e-01 7.4808713524520065e-01 0.0000000000000000e+00  -6.3073395724060136e-03 -1.2290463607155246e-01 0.0000000000000000e+00  -6.5059921942280910e-04 1.6069425742390858e-01 0.0000000000000000e+00  2.7404067633997305e-03 1.2190218070358846e-01 0.0000000000000000e+00  9.7631049050093512e+00 -8.4513818144450290e-02 0.0000000000000000e+00  5.4450539006018488e+00 -8.4552687597594600e-01 0.0000000000000000e+00  -9.8480765596500159e+00 -5.7895340354749421e-02 0.0000000000000000e+00  -8.0389877310762579e+00 1.0947014964179609e+00 0.0000000000000000e+00  1.5917866387159085e+00 4.2411420914840914e+00 0.0000000000000000e+00  1.5438620720613985e+00 -1.5291738047631431e+00 0.0000000000000000e+00  2.4095073497376768e-01 -5.5490054668002931e-01 0.0000000000000000e+00  1.2538066911659354e-01 1.1880827055411995e+00 0.0000000000000000e+00  -2.6829045952196007e-01 -4.8497712057976128e-01 0.0000000000000000e+00  5.5529930129394811e-03 -1.2162274757730722e+00 0.0000000000000000e+00  1.0674738947273223e+00 -8.4585903349599090e-01 0.0000000000000000e+00  -9.1698548168591743e-02 1.4003255889797706e+00 0.0000000000000000e+00  9.6642817131655109e-02 -2.0937083466038162e-01 0.0000000000000000e+00  -6.4297167484973308e+00 2.7589004289313475e+00 0.0000000000000000e+00  -1.5020005605436437e-01 1.1925768305840392e+00 0.0000000000000000e+00  -6.5036195543917694e-02 -4.6671718310921104e+00 0.0000000000000000e+00  1.1609179441393556e+00 -1.8962503049299297e+00 0.0000000000000000e+00  -2.4109912702464045e+00 -1.4229340838428099e+00 0.0000000000000000e+00  3.8012710219040615e+00 4.6553959703975547e+00 0.0000000000000000e+00  -3.7842368025866171e+00 -4.8369654700620748e+00 0.0000000000000000e+00  1.8941907293323761e+00 -1.4068985935248775e-02 0.0000000000000000e+00  2.4580326640637171e+00 1.4314912625395797e+00 0.0000000000000000e+00  -2.1957058651390771e+00 -4.0223132367984924e+00 0.0000000000000000e+00  8.3362109329238283e+00 -1.0215238513271276e+00 0.0000000000000000e+00  1.1740611872226909e-02 -1.2873983878027142e+00 0.0000000000000000e+00  1.1065118933969187e+00 6.5096583116215734e-01 0.0000000000000000e+00  -1.1039666389329106e+00 -6.8096015151908662e-01 0.0000000000000000e+00  -1.3809303139891640e+00 -7.6851312875083555e-01 0.0000000000000000e+00  -1.2760097787910604e-01 -1.2528216081544470e+00 0.0000000000000000e+00  3.4373783511914530e-01 3.5013033661771076e-01 0.0000000000000000e+00  1.9855075331004321e-01 -7.0897561916966473e-02 0.0000000000000000e+00  -1.0799140054749449e-03 -5.6685195188351287e-02 0.0000000000000000e+00  1.1658808854049768e-01 3.5290634151948989e-02 0.0000000000000000e+00  -1.0996035496122517e-01 -6.4368367665721613e-03 0.0000000000000000e+00  6.3975511040716064e+00 -2.8671507618279328e+00 0.0000000000000000e+00  1.9542580892350152e+00 -1.3918993255722607e+00 0.0000000000000000e+00  -2.4561218965218603e+00 -3.2087360960699103e+00 0.0000000000000000e+00  -1.9749883099542522e+01 -6.3303859928830579e-03 0.0000000000000000e+00  -2.0591