<?xml version="1.0"?>
<VTKFile type="UnstructuredGrid"  version="0.1"  >
<UnstructuredGrid>
<Piece  NumberOfPoints="17661" NumberOfCells="34505">
<Points>
<DataArray  type="Float64"  NumberOfComponents="3"  format="ascii">0 1 0  0 0 0  2 0 0  2 1 0  0.2475528258147577 0.5154508497187473 0  0.25 0.5 0  0.2475528258147577 0.4845491502812526 0  0.2404508497187474 0.4706107373853763 0  0.2293892626146237 0.4595491502812526 0  0.2154508497187474 0.4524471741852423 0  0.2 0.45 0  0.1845491502812526 0.4524471741852423 0  0.1706107373853764 0.4595491502812526 0  0.1595491502812526 0.4706107373853763 0  0.1524471741852423 0.4845491502812527 0  0.15 0.5 0  0.1524471741852423 0.5154508497187473 0  0.1595491502812526 0.5293892626146237 0  0.1706107373853764 0.5404508497187474 0  0.1845491502812527 0.5475528258147577 0  0.2 0.55 0  0.2154508497187474 0.5475528258147577 0  0.2293892626146237 0.5404508497187474 0  0.2404508497187474 0.5293892626146237 0  0.4 0.5 0  0.6 0.6 0  0.6 0.4 0  1 0.8 0  1.3 0.6 0  1.3 0.4 0  1 0.2 0  0.7 0.4 0  0.7 0.6 0  1.4 0.6 0  1.6 0.5 0  1.4 0.4 0  1.847552825814758 0.5154508497187473 0  1.85 0.5 0  1.847552825814758 0.4845491502812526 0  1.840450849718748 0.4706107373853763 0  1.829389262614624 0.4595491502812526 0  1.815450849718747 0.4524471741852423 0  1.8 0.45 0  1.784549150281253 0.4524471741852423 0  1.770610737385376 0.4595491502812526 0  1.759549150281253 0.4706107373853763 0  1.752447174185242 0.4845491502812527 0  1.75 0.5 0  1.752447174185242 0.5154508497187473 0  1.759549150281253 0.5293892626146237 0  1.770610737385376 0.5404508497187474 0  1.784549150281253 0.5475528258147577 0  1.8 0.55 0  1.815450849718747 0.5475528258147577 0  1.829389262614624 0.5404508497187474 0  1.840450849718748 0.5293892626146237 0  1 0 0  1 1 0  0 0.5 0  2 0.5 0  0.5 0 0  1.5 0 0  1.5 1 0  0.5 1 0  1.75 0 0  1.75 1 0  0.25 1 0  0.25 0 0  1.25 0 0  0.75 0 0  0.75 1 0  1.25 1 0  0.3725554334277117 0.7642666300283135 0  0.375 0.235 0  1.625 0.235 0  1.625 0.765 0  0 0.25 0  0 0.75 0  2 0.75 0  2 0.25 0  0.625 0.81875 0  0.6499999999999999 0.190625 0  1.375 0.8187500000000001 0  1.375 0.18125 0  1.15 0.7 0  1.15 0.3 0  0.85 0.7 0  1.814791666666667 0.1852083333333333 0  1.811730769230769 0.7382692307692308 0  0.1852083333333333 0.1852083333333334 0  0.1840244119319019 0.815975588068098 0  0.85 0.3 0  2 0.875 0  1.152272727272727 0.1340909090909091 0  0.875 0 0  1.152272727272727 0.8659090909090909 0  0.8477272727272727 0.8659090909090909 0  0.8025975318471337 0.1491341560509555 0  0.5140763145316528 0.7206234211963826 0  0.4901224013758102 0.8594594147419381 0  1.875 1 0  1.48464960456942 0.2795221880492092 0  1.51016818730963 0.1407409912480207 0  1.48464960456942 0.7204778119507909 0  1.517998509539161 0.858828994435724 0  0.5218371613039796 0.2706765982218459 0  0.375 1 0  1.625 0 0  0 0.625 0  0.1279662324777819 0.3186873708662855 0  2 0.375 0  2 0.625 0  1.625 1 0  0.4762884050256251 0.1381321303327793 0  1.66715200204435 0.3671520020443497 0  0.3411194216097047 0.3718755262632354 0  1.66715200204435 0.6328479979556505 0  0.2293375031488215 0.6852297049426554 0  1.8125 0.8765958288588708 0  1.828700169805353 0.318794259420021 0  0.375 0 0  0.3030849358974359 0.1225080128205128 0  1.696915064102564 0.1225080128205128 0  0.3125 0.8827687679325231 0  0.4100587955541826 0.6346030229804038 0  2 0.125 0  1.875 0 0  0.125 0 0  0 0.125 0  0.125 1 0  0 0.875 0  0.5 0.45 0  0.5 0.55 0  1.278149224806201 0.7297238372093023 0  1.250775615004007 0.2184103757970662 0  0.7492243849959929 0.7815896242029338 0  1.125 1 0  1.375 0 0  1.375 1 0  0.625 0 0  0.625 1 0  1.125 0 0  0.875 1 0  0 0.375 0  1.5 0.55 0  1.5 0.45 0  0.2480454145864052 0.2911694084917106 0  0.1061636102285989 0.6875 0  0.9172520139947967 0.112654991253252 0  1.682026291298303 0.8825000000000001 0  0.6499999999999999 0.7050892857142856 0  1.35 0.2949107142857143 0  0.7749999999999999 0.35 0  1.263701301081917 0.8426362379684855 0  1.901952516101588 0.8069329477617702 0  0.6 0.5 0  0.7 0.5 0  1.3 0.5 0  1.4 0.5 0  1.727600713014309 0.2750723856898529 0  1.3125 0.09062500000000001 0  0.7142592324977534 0.8909203568981011 0  1.883829473776445 0.6450078637524899 0  0.6830874463519312 0.2933811695278971 0  0.7070263916632118 0.0989984759544718 0  0.4316959974368003 0.3216648344694547 0  1.380950802730399 0.7150815420254574 0  0.3065181328757786 0.6128678607000935 0  0.5818077415991646 0.1026164027410931 0  0.9375 0.9174691833590138 0  1.047116689280869 0.9 0  1.0625 0.08253081664098619 0  1.575831396629752 0.676518355006118 0  1.55888866349099 0.3587674601363565 0  1.4375 0.9202987442070407 0  0.925 0.25 0  1.898145355082274 0.2440468520852883 0  0.2101839610042735 0.09000834668803417 0  0.1061033326390469 0.1135790505786181 0  0.09544599273732228 0.2257275858847144 0  1.8125 0.08207278777652795 0  0.217966377040559 0.9076457089970479 0  0.2738344022609309 0.7738762677729314 0  0.0814316252519587 0.8125 0  1.4375 0.07525327865218089 0  0.5625 0.9249899135948225 0  1.904586244829915 0.1464615224468097 0  1.744016930730878 0.8078112236212321 0  1.336236868906671 0.909375 0  1.776885324280126 0.6459403188375784 0  0.1202836912147299 0.9022840281039533 0  1.708781716491081 0.7189249933309093 0  1.904101394003999 0.3958986059960003 0  1.225 0.35 0  0.7749999999999999 0.6499999999999999 0  0.07245832196556974 0.5649857308297664 0  0.07245832196556991 0.4350142691702333 0  1.600155803939286 0.09694604053970658 0  1.906498832379319 0.9050341767410571 0  0.7395198302319537 0.2185048068670455 0  1.929319135268518 0.5624131848615803 0  1.192971893151267 0.7823814560091357 0  1.075 0.75 0  0.4061659433429421 0.9081082988297638 0  0.5132215234690947 0.360618740666639 0  1.225 0.6499999999999999 0  0.925 0.75 0  1.075 0.25 0  0.5512900568072264 0.1864565208394959 0  1.581167620911809 0.5873352418236175 0  0.2885057759523771 0.2110616359185661 0  1.593994717940027 0.9123639132241911 0  0.4212267295746058 0.4095812569963867 0  1.9375 0 0  2 0.0625 0  0.3881495246442013 0.1473603292365287 0  0.4375 0 0  0.5203951145825836 0.634209770834833 0  1.479544041656137 0.6340880833122748 0  1.755651787083367 0.3687822938381424 0  1.224765949825823 0.08426701736150129 0  0.2206585476125226 0.3695670637204487 0  1.07506901412899 0.1645795091318676 0  1.151136363636364 0.2170454545454546 0  0.9249309858710097 0.8354204908681324 0  0.7900036951255988 0.9264973001454673 0  1.1875 1 0  1.221344379396217 0.918226669561771 0  0.8488636363636364 0.7829545454545455 0  2 0.3125 0  0.8425886855399499 0.07640702899038848 0  0.3451973255788813 0.6860982230385505 0  1.477176894376523 0.3706462112469538 0  1.892277940918713 0.7260390202279857 0  0.6053223777592734 0.2617163340157894 0  0.1366572879283138 0.6132172689980417 0  0.8767669976572787 0.183829901696625 0  1.734312916462054 0.194354217051338 0  0.6358370118041781 0.8966293729975513 0  0.0625 0 0  0.4254296797826017 0.07790150880037369 0  0.0625 1 0  0.325 0.480201944959433 0  1.92581980103314 0.4721133056178217 0  1.675 0.480201944959433 0  1.68664354441175 0.5573253462218921 0  1.082179034295607 0.8289260983483835 0  1.904764711899212 0.3198299058827855 0  0.4168432122069987 0.8297658089581273 0  0.4566447213929462 0.2189812831651196 0  1.591685173164597 0.8349342830268984 0  1.533749638400075 0.7818373685814323 0  1.455696077414499 0.8059760010402454 0  0.1686918926316089 0.7374366337613715 0  1.90625 0.06990635764468446 0  1.620885539353526 0.4271612268364069 0  1.542504721969586 0.2184236464568206 0  0.9949252774665426 0.1219386785908539 0  0.4338464485831625 0.7117387264759969 0  0.5863598564893037 0.7506712216607603 0  1.416648798464286 0.327639446233766 0  0.5838428563156408 0.6721266313560732 0  2 0.6875 0  1.412978141476274 0.249183169093648 0  0.1442761096606068 0.3906357074122901 0  0.3464733991224566 0.550813757819126 0  0.4672496122382359 0.7767891610807409 0  1.449528495155154 0.1841671848770897 0  0.5505824438750014 0.8159828333211079 0  0.06097042075975112 0.2899564099443032 0  0.162441804455353 0.2544585468066967 0  0.2515140598341737 0.8431055049241685 0  1.508091341603097 0.9292987433934674 0  0.3125 0 0  0.3530550570442522 0.06947972340498598 0  1.661411492502874 0.06098752102514014 0  0.2848293132020425 0.4151706867979574 0  1.302321766598192 0.1645086954495226 0  0.8156600088457951 0.2309188807474504 0  0.7 0.45 0  0.6 0.55 0  0.55 0.575 0  1.4 0.45 0  1.45 0.425 0  1.4 0.55 0  1.45 0.575 0  1.571812968831181 0.2861304084233215 0  1.530671578227107 0.06852186336978081 0  0.3630747334266106 0.3046791235976137 0  0.6875 1 0  0.4755617942555476 0.9311001820263514 0  2 0.1875 0  1.35 0.6508409658867128 0  1.595333463987267 0.1690763300181999 0  0.5132280109697771 0.07337192148753263 0  0.07018707600830057 0.3609417193972463 0  0.9375 0 0  0 0.0625 0  0 0.9375 0  1.325515777996516 0.2299455714704491 0  0 0.1875 0  1.660060967657433 0.2966152714601534 0  1.642615142985795 0.6978201027615898 0  0.5794576841249596 0.3299650910486734 0  0.2184968267666885 0.6167843680148617 0  1.813188555186561 0.8074265619392141 0  1.74918685017469 0.9220590235917012 0  1.8125 1 0  1.6875 1 0  1.84538439786796 0.9374701477032144 0  0.985829156030089 0.8680785867537879 0  1.71115653260446 0.42147410231474 0  0.7745858315663394 0.08637237667517719 0  0.8581308326208463 0.9336120648598586 0  1.114299681563871 0.9280047118126826 0  1.156995061722164 0.06331148205342724 0  1.768286804887032 0.1346484358995713 0  1.219879536571258 0.1548077115155514 0  1.273737374357294 0.2912273573052739 0  0.7262626256427063 0.708772642694726 0  0.7683710923653957 0.2812543740322987 0  1.74263903925824 0.06956570012770677 0  0.7757289136414349 0.8503225431286444 0  0.6499999999999999 0.3532805130518777 0  1.0625 1 0  0.45 0.525 0  0.45 0.475 0  0.9626187472125531 0.06266183112941157 0  1.830748432489386 0.2510639858274513 0  1.820709862628178 0.3854853370689849 0  0.5625 0 0  1.667964881073882 0.1832337384052585 0  0.28125 0.05921414769878126 0  0.2467253217
[...]
<PointData  Scalars="f_206"> 
<DataArray  type="Float64"  Name="f_206"  format="ascii">0.0000000000000000e+00  0.0000000000000000e+00  0.0000000000000000e+00  0.0000000000000000e+00  1.0000000000000000e+00  9.9999999999999989e-01  1.0000000000000000e+00  1.0000000000000000e+00  1.0000000000000000e+00  1.0000000000000000e+00  9.9999999999999989e-01  1.0000000000000000e+00  1.0000000000000000e+00  1.0000000000000000e+00  1.0000000000000000e+00  1.0000000000000000e+00  1.0000000000000000e+00  1.0000000000000000e+00  1.0000000000000000e+00  1.0000000000000000e+00  1.0000000000000000e+00  1.0000000000000000e+00  1.0000000000000000e+00  1.0000000000000000e+00  0.0000000000000000e+00  0.0000000000000000e+00  0.0000000000000000e+00  0.0000000000000000e+00  0.0000000000000000e+00  0.0000000000000000e+00  0.0000000000000000e+00  0.0000000000000000e+00  0.0000000000000000e+00  0.0000000000000000e+00  0.0000000000000000e+00  0.0000000000000000e+00  0.0000000000000000e+00  0.0000000000000000e+00  0.0000000000000000e+00  0.0000000000000000e+00  0.0000000000000000e+00  0.0000000000000000e+00  0.0000000000000000e+00  0.0000000000000000e+00  0.0000000000000000e+00  0.0000000000000000e+00  0.0000000000000000e+00  0.0000000000000000e+00  0.0000000000000000e+00  0.0000000000000000e+00  0.0000000000000000e+00  0.0000000000000000e+00  0.0000000000000000e+00  0.0000000000000000e+00  0.0000000000000000e+00  0.0000000000000000e+00  0.0000000000000000e+00  0.0000000000000000e+00  0.0000000000000000e+00  0.0000000000000000e+00  0.0000000000000000e+00  0.0000000000000000e+00  0.0000000000000000e+00  0.0000000000000000e+00  0.0000000000000000e+00  0.0000000000000000e+00  0.0000000000000000e+00  0.0000000000000000e+00  0.0000000000000000e+00  0.0000000000000000e+00  0.0000000000000000e+00  0.0000000000000000e+00  1.4351935438361293e-01  1.4149698494614488e-01  1.0591978924368957e-06  1.0602196593270465e-06  0.0000000000000000e+00  0.0000000000000000e+00  0.0000000000000000e+00  0.0000000000000000e+00  2.5340846347531976e-02  2.1510061229109392e-02  6.7008004930735820e-06  6.7006305807234316e-06  0.0000000000000000e+00  0.0000000000000000e+00  0.0000000000000000e+00  2.6790110421654333e-07  2.8366131838128638e-07  1.2844913278747033e-01  1.2688043316852293e-01  0.0000000000000000e+00  0.0000000000000000e+00  5.6163464234743187e-05  0.0000000000000000e+00  5.6236359705944408e-05  3.0726376226085017e-03  5.1270445799794333e-03  6.8270895841745546e-02  4.8787677837284590e-02  0.0000000000000000e+00  2.3147986558834517e-06  2.1765795314524753e-06  2.3165489030421168e-06  2.0539915194311927e-06  6.3965967859865913e-02  0.0000000000000000e+00  0.0000000000000000e+00  0.0000000000000000e+00  2.6822942542882755e-01  0.0000000000000000e+00  0.0000000000000000e+00  0.0000000000000000e+00  5.1508489928892918e-02  5.0786323728759668e-07  3.0253435282634517e-01  5.0842496674068120e-07  3.3331250344778002e-01  2.1413141898209823e-07  2.1376896015974779e-07  0.0000000000000000e+00  8.0236648433218927e-02  5.0305181385964655e-07  7.5375435765522539e-02  1.7010496102415751e-01  0.0000000000000000e+00  0.0000000000000000e+00  0.0000000000000000e+00  0.0000000000000000e+00  0.0000000000000000e+00  0.0000000000000000e+00  0.0000000000000000e+00  0.0000000000000000e+00  8.1985924385750045e-06  1.5310881269019860e-05  9.2378000527979735e-03  0.0000000000000000e+00  0.0000000000000000e+00  0.0000000000000000e+00  0.0000000000000000e+00  0.0000000000000000e+00  0.0000000000000000e+00  0.0000000000000000e+00  0.0000000000000000e+00  0.0000000000000000e+00  0.0000000000000000e+00  2.8090257392394624e-01  2.2093549609382279e-01  1.2690086105751159e-03  5.4369271125739109e-07  1.9941580316492142e-02  4.5663179677505833e-06  0.0000000000000000e+00  1.7676065127128301e-05  1.2149458822213114e-07  0.0000000000000000e+00  0.0000000000000000e+00  0.0000000000000000e+00  0.0000000000000000e+00  5.0790853783126489e-07  9.1571320538999201e-06  9.0220607318239783e-03  1.0852821036138106e-07  1.4454008619154482e-02  8.8082612888658682e-03  1.3597032722104910e-01  4.2129923283531707e-06  4.0362423273039283e-01  2.1657354875193973e-02  8.1935113897798381e-04  2.0970736362607402e-04  1.5685930739152234e-04  1.0709524664923783e-06  8.9309965079087718e-07  2.6613645421296570e-06  0.0000000000000000e+00  1.3151297185278337e-07  5.6388726749076766e-02  4.6961810165738367e-02  1.0919956292977660e-01  1.5272980428247527e-07  5.8700817609318535e-02  1.7936627001548758e-01  7.1224174448444699e-02  2.5386537918006080e-06  1.8091506402513911e-02  1.0194378042994596e-07  4.6047152262605709e-07  7.2886445968428117e-06  2.6606664801888425e-07  4.3779392414662568e-02  5.6914748876206938e-07  6.3711192606528942e-08  0.0000000000000000e+00  0.0000000000000000e+00  3.2259300001418267e-01  3.2255331596235481e-01  8.5421513664646007e-07  7.1446033595824142e-08  1.0170137140722827e-02  3.1628066768164854e-08  2.3021755640032241e-05  0.0000000000000000e+00  4.6006507675035613e-02  5.6887734556505962e-02  0.0000000000000000e+00  0.0000000000000000e+00  0.0000000000000000e+00  4.3155573194575574e-02  4.5301517912838521e-07  1.5929467233984612e-01  8.2432974126152956e-07  1.4052550287544505e-01  0.0000000000000000e+00  0.0000000000000000e+00  8.0041095479880864e-02  0.0000000000000000e+00  5.0061549279498352e-02  1.0910417362112039e-06  2.8255209263721592e-07  2.1589760609728863e-05  4.9230822885319575e-01  1.1262929675624727e-04  2.9964479497917964e-05  1.1725978505009906e-03  3.4329443714701999e-03  0.0000000000000000e+00  2.2026642489020755e-05  2.8337989324560323e-03  0.0000000000000000e+00  2.1813477408295281e-03  2.3388926765615206e-01  1.0188630157229859e-06  1.3597248793607767e-07  3.2456896859423830e-02  4.5743950451814647e-01  2.2180646254848680e-03  4.9495283325171334e-07  1.5330964428929917e-02  0.0000000000000000e+00  3.6325004718454949e-02  0.0000000000000000e+00  4.5671559492243224e-01  2.3573961727599751e-08  2.0631202332456530e-07  2.5295696431594843e-07  9.6518885726635956e-05  1.0385720122054560e-07  8.3412639805307498e-02  8.7440983807254152e-02  1.2763018273384199e-06  1.9997406038579479e-06  3.5727402783561252e-06  2.1501673215246761e-01  5.4537233247035113e-08  3.5999163209206917e-07  1.8797086674605731e-06  4.4823993603066472e-04  1.2546745334616413e-01  3.8074887816738137e-02  2.3509110092741365e-06  3.1847763797770330e-02  0.0000000000000000e+00  4.2479542472444863e-06  4.9122380981729818e-01  3.4689370459249047e-01  8.3527765772444543e-02  3.7459265227145035e-06  4.2951118966456425e-02  1.1434073451659121e-01  1.9897739133571501e-01  1.1114513037451239e-01  1.3387381713117192e-06  0.0000000000000000e+00  4.0182808624106121e-02  3.6127346882639508e-07  5.2980002311698393e-01  1.2419342763737572e-05  4.1672893231042129e-03  0.0000000000000000e+00  0.0000000000000000e+00  0.0000000000000000e+00  0.0000000000000000e+00  0.0000000000000000e+00  0.0000000000000000e+00  0.0000000000000000e+00  1.3171043627264474e-06  1.0855961514319323e-06  2.0472634957741556e-01  0.0000000000000000e+00  2.6122292022693443e-02  0.0000000000000000e+00  2.3374329765064851e-06  1.2542793783105284e-06  2.3174030207163500e-02  2.0901682709078906e-01  0.0000000000000000e+00  0.0000000000000000e+00  0.0000000000000000e+00  8.4428971052716689e-06  0.0000000000000000e+00  7.4294691071514275e-07  8.1075377042567518e-07  3.2867087873602062e-02  5.4638626249171962e-01  2.7557009421460177e-07  2.3696375682306432e-07  0.0000000000000000e+00  0.0000000000000000e+00  9.0614424088486987e-08  5.0653789344259458e-04  2.5595140322170999e-07  4.5219895023825146e-03  1.6533148004303868e-03  7.2972474675034405e-05  3.8837216832038247e-05  3.1972577570919876e-07  2.6786474139192318e-05  6.4331937621765383e-06  9.0127117164702959e-03  5.5754009661092676e-03  2.2420248235457055e-07  6.6436409202257230e-03  1.2392383578973725e-02  0.0000000000000000e+00  0.0000000000000000e+00  0.0000000000000000e+00  4.8527020096225123e-04  2.4629778172333027e-07  1.4302691671068104e-07  0.0000000000000000e+00  7.7284353132126030e-07  3.7680466629408230e-02  1.1273267327254997e-01  0.0000000000000000e+00  0.0000000000000000e+00  1.0773951884437195e-01  3.5341812227577839e-02  3.8927672622099355e-02  7.6637496051540527e-06  8.4185412177811319e-06  0.0000000000000000e+00  7.4174874789503901e-07  3.7431642189279244e-07  4.4214345597026766e-01  1.4555859944144777e-02  1.2649288551784665e-05  4.2972123941985218e-03  3.9675697429756372e-02  9.9301487184202328e-03  0.0000000000000000e+00  2.3206383447867568e-06  1.0005032112330607e-01  0.0000000000000000e+00  2.0088001981175174e-02  2.2981689895165383e-01  2.3932178037477873e-07  0.0000000000000000e+00  3.9992599158157371e-06  2.1160533392324175e-02  8.7180844243048343e-06  3.0588544327620979e-06  0.0000000000000000e+00  0.0000000000000000e+00  0.0000000000000000e+00  0.0000000000000000e+00  0.0000000000000000e+00  0.0000000000000000e+00  0.0000000000000000e+00  0.0000000000000000e+00  0.0000000000000000e+00  0.0000000000000000e+00  0.0000000000000000e+00  0.0000000000000000e+00  0.0000000000000000e+00  0.0000000000000000e+00  0.0000000000000000e+00  0.0000000000000000e+00  0.0000000000000000e+00  0.0000000000000000e+00  0.0000000000000000e+00  0.0000000000000000e+00  0.0000000000000000e+00  0.0000000000000000e+00  0.0000000000000000e+00  0.0000000000000000e+00  3.1671411759410094e-02  9.3937220996111234e-03  5.1528670484308569e-08  9.0158606554245235e-02  3.4761309391653611e-01  3.6751802008998252e-01  3.2715805222934141e-01  1.9483900316399919e-01  4.5620579009724422e-06  0.0000000000000000e+00  0.0000000000000000e+00  1.6335874290702015e-02  0.0000000000000000e+00  1.6064655507161667e-02  9.5394105384812695e-04  8.5828901514512792e-04  4.5040362130952797e-05  1.9960218001382221e-01  2.8485583642267981e-01  5.9539187671900995e-08  5.3234533691780748e-06  1.2606230475037330e-07  8.0348913427828737e-07  3.1524637375877053e-02  1.1266748932599206e-01  5.8901102612082226e-08  1.9240926112413570e-07  4.7000526457628287e-06  2.7000723743830893e-02  4.2670417946369495e-07  7.2895414920031648e-08  2.8070113913687371e-06  8.9121387283673751e-03  1.0208413982896418e-01  2.5652028926097631e-01  3.1845726375279439e-06  6.6212897581071732e-03  1.3205485800012140e-01  8.2392961937159420e-02  4.3090698496323762e-03  5.9573802516576289e-08  3.5212519143389145e-07  3.0328127194696509e-05  1.0749075943899793e-05  1.5361414487215787e-05  1.6584725466094727e-02  1.6421226234640020e-06  1.9760488140917318e-07  5.7591118616136650e-08  1.7232564383497226e-07  2.5490641679015210e-03  8.2547348847109306e-02  1.7193620324086200e-07  3.6917827247184654e-07  8.5591419044524694e-07  0.0000000000000000e+00  6.4263582013768424e-04  2.5076264364201455e-03  0.0000000000000000e+00  9.7232196372437121e-08  3.8601501642652395e-07  1.6970479761115596e-05  3.6460608872460734e-02  2.7228222569853237e-02  1.8856281196635624e-01  3.1265658786387522e-04  0.0000000000000000e+00  4.3253214253046424e-07  7.2972942551304571e-06  7.2682460067871686e-07  4.7175091050620414e-07  3.3864718619438637e-07  5.6034749440464784e-08  7.1283384096393488e-06  4.7060684967117224e-08  1.9443092946635968e-01  8.1615976362335374e-07  2.7766412499732072e-07  4.4065689329582243e-08  1.4444466756662716e-06  1.4316994627537905e-02  1.5588690356390324e-06  5.7916320280148847e-01  2.1115182111818936e-02  6.4434770317021777e-03  3.9057281319958459e-03  2.9810668251739054e-05  8.0168871196456881e-02  7.5289087791366505e-02  1.2611394609119676e-07  1.2232365994647237e-01  1.4780029735308560e-06  9.1461596786008535e-03  2.6685910702199167e-01  4.1016413698420823e-01  9.8317528961537448e-02  4.8090533339631225e-06  1.7511092955337884e-02  4.3347864081952812e-07  3.8126658346536426e-07  2.6936567082957840e-08  3.2448302016224159e-02  6.8359833817433588e-02  1.0416963624246142e-04  4.3694563612857511e-07  2.1868795961426231e-04  1.3739772740358147e-01  2.0064401104876736e-01  1.6693152393898593e-03  2.0858788049784650e-04  6.1920473782472297e-05  1.0411421971516247e-04  6.4435266743733202e-04  6.7148085622223472e-08  4.9927172982472061e-02  3.1152483488333462e-02  5.4206628387824918e-02  8.5367297981208331e-07  1.3167597505413696e-05  1.8966285471902946e-07  2.2386851795476746e-02  3.6658497898573373e-06  2.7378375252556904e-06  1.1552718770205644e-06  7.3254666048669681e-07  1.3215813188682988e-04  1.6889808610418085e-07  1.7093387179343489e-01  6.1661964198037737e-07  1.1090350179028782e-07  1.9609296494159625e-01  4.6149315742745618e-02  1.4192755005209314e-06  5.9983722309848594e-02  3.3853857425067653e-08  6.3233297305434043e-04  4.7717035240672848e-03  9.5902342231060811e-08  0.0000000000000000e+00  0.0000000000000000e+00  0.0000000000000000e+00  8.0617505543199204e-07  1.0952066630713971e-06  1.2723025440780342e-01  5.6131572451004145e-03  2.3723264187364784e-05  2.1731474370401062e-07  7.7226739735014524e-02  2.9771153468928747e-08  1.5884700928761280e-05  3.2948625325183084e-06  9.9715340975110608e-08  1.7708464872811117e-01  7.4444030463438948e-02  6.7869617672535923e-02  2.9110934597899603e-02  5.1873985653610377e-08  8.9391090325081649e-02  2.8673107803851639e-06  1.0307511241514110e-06  7.2778668227350934e-02  2.5050407243833520e-02  2.9991961759896990e-02  7.6272378725809340e-03  1.0880376214518206e-02  2.0413343317007523e-01  1.7930509086695640e-01  1.3277694106424348e-01  4.7602969531168680e-07  2.0157233199176575e-02  4.6827039952064164e-02  4.2272919101131658e-02  4.6783590427541332e-06  1.9031366599463134e-06  1.4447370312639062e-02  1.6607485188010378e-08  5.2725950001716307e-07  1.3008396470130124e-07  7.8532933653910887e-07  1.0720635618381330e-01  2.6102005584058362e-02  5.5922841534549261e-08  3.9859790441569856e-08  8.4365005861066193e-06  1.9813886113021089e-03  1.6313314668365577e-08  2.3918711953368320e-08  5.7953223175044999e-01  1.4682071147078932e-01  5.8025604992889490e-01  1.3565412902569890e-01  3.9642017826896489e-03  0.0000000000000000e+00  2.3402130190089452e-08  2.6502262834422841e-01  4.3404617344620993e-06  1.5686154913400349e-02  7.2942457365167118e-03  1.0891135047273588e-02  5.7614210163312668e-02  1.6211635948836876e-07  6.8384261996006244e-07  1.7413982981673581e-02  1.3563423366221670e-06  3.8932907661515613e-07  1.2410767028261240e-01  1.5183977336731419e-01  2.2679413146510126e-02  1.4509672485948534e-06  2.1884214942912959e-08  5.7764681694759297e-06  3.7559870469911404e-02  3.4398034705797595e-06  6.1109295517843093e-05  2.2846618725870438e-03  6.0639722908726815e-07  1.7715921385608716e-01  5.6043520884398201e-01  1.7424150945835029e-05  2.7202275201104513e-02  8.4084689304324521e-03  5.9293152390297858e-02  1.6007577003968170e-06  1.9411642184876132e-03  4.6864256223646609e-06  3.1937709367971151e-01  2.9518110766320465e-06  2.2085758199326869e-04  2.4538579601966301e-01  3.6204010696843293e-07  1.2367451082755240e-01  5.5578484423540388e-02  4.4372492914159650e-02  3.2166722952362278e-06  0.0000000000000000e+00  0.0000000000000000e+00  0.0000000000000000e+00  0.0000000000000000e+00  0.0000000000000000e+00  0.0000000000000000e+00  0.0000000000000000e+00  0.0000000000000000e+00  0.0000000000000000e+00  0.0000000000000000e+00  6.6108442140585090e-03  0.0000000000000000e+00  0.0000000000000000e+00  6.6999712558781375e-07  1.7475887583907525e-06  3.6487284613594402e-05  2.1478110229555020e-01  1.8577766921172077e-06  6.1621688662234113e-06  1.5031438968040220e-01  1.1240119233354351e-03  3.6905354808006272e-05  2.9570489232941730e-07  5.5360788914021149e-07  2.3522503701035444e-05  3.9553626919685123e-05  1.1684852658377509e-01  9.8649859040310549e-07  1.8996947581008871e-07  5.7097556980365725e-05  1.1074280646312194e-01  7.9165587202223761e-02  4.3658094165332673e-01  1.7342289644336661e-07  3.7003299003136476e-07  1.3122000938076427e-05  1.0761746745998269e-02  4.2543616877789110e-03  9.3622669518607510e-03  1.0138518671497863e-06  3.7631556858365504e-06  3.5149415528206561e-05  3.5320382194281616e-02  9.6100581990004072e-08  2.3734407840238303e-07  8.9204502910068817e-02  5.6360033431730343e-02  6.9867913051454955e-02  1.0641577300739981e-07  1.7143573764989998e-06  6.9025361888250494e-02  1.6863328876968023e-02  3.8340714262411683e-05  4.7231422435371644e-02  2.1647436739274797e-02  7.0713272267091745e-02  2.6942966398764881e-06  5.0612293440977993e-02  8.0981895616767230e-07  2.6650466334927079e-07  2.5931923675862846e-05  1.3036100460207407e-02  0.0000000000000000e+00  3.7721415174233014e-04  2.9137198528239692e-07  1.0408930555813621e-01  3.0092637446682263e-02  6.3488443356890656e-01  1.9701747945766798e-07  2.1560671997765617e-07  2.5580739447112585e-07  1.5512753409847066e-01  9.9299160172593073e-03  5.4428607534430358e-02  6.0129485050340780e-07  2.5496359449818884e-01  1.6732377752049418e-06  0.0000000000000000e+00  1.5618213240661236e-07  1.0555350039961634e-05  4.6355887136225030e-02  1.1006977651128283e-07  2.4324305474303075e-04  2.8800245904908425e-06  5.0480450135924164e-03  7.6353782556775662e-07  3.6327103419906359e-01  7.8418900855951956e-07  2.3303895247686365e-01  6.2586398339628507e-02  7.3648061836073607e-08  1.3909525299259728e-06  1.8662349519039596e-06  2.8572717206893756e-03  3.1477633401195754e-01  4.2887400892534120e-03  6.1355339731823822e-03  2.5797560242876863e-03  1.0864133313964844e-05  9.8780759661079270e-06  1.2281925308928507e-05  1.7836665767279431e-05  8.2221238110559963e-03  2.8389022633697074e-02  3.3036419608900669e-01  3.6660935210386431e-01  6.5391999606894657e-01  6.4355875076895874e-01  5.0234742814424336e-04  1.1297631720198504e-03  1.6886675479598954e-03  9.8415855953931197e-04  3.8178205962857239e-03  1.7746445543524256e-03  1.2780141175428491e-05  4.7018586616012553e-03  1.1066928009667058e-01  7.5183648763553216e-07  4.1641933975721045e-07  8.9680379798050372e-05  1.8078635699780723e-07  2.0368012044050658e-05  5.5355449970411988e-02  1.4857233500307956e-03  1.4176173601868408e-01  4.8647099852864473e-01  1.7889640241622505e-06  1.0115772479533519e-03  1.7034534032375280e-03  1.3220047054189059e-08  9.1096793947631717e-08  2.5415844874930296e-06  2.0226791293937364e-07  9.8116311203267468e-06  1.8322394907008642e-07  9.9034050920151426e-02  6.6818529691723727e-01  6.7332733636965868e-06  0.0000000000000000e+00  4.8529514885175106e-03  3.6679367589179108e-07  5.5648714864152873e-07  5.6705709406745055e-07  3.0024256380860256e-07  1.4621601436376055e-01  9.3831392970361263e-02  1.1031644614252684e-01  2.2544828816812464e-06  3.8411938508381765e-03  0.0000000000000000e+00  1.5700892305529281e-03  2.5550694700247907e-02  3.2871470880379045e-01  4.7032954881074029e-01  3.2126191110636473e-06  3.7505348237299360e-07  7.5250806676013865e-03  1.6693296506744673e-01  2.8905933212159107e-01  2.4904508798036912e-01  3.3903385139193382e-07  3.4757058127509081e-07  3.4864823278361451e-07  0.0000000000000000e+00  2.6708292520847676e-02  3.1721219314536017e-02  1.2656187987400224e-07  4.6322054537718859e-05  2.6084427786778767e-08  3.9075624733241189e-08  4.8928203933402317e-06  7.3190285648940952e-05  3.8705206897955058e-01  2.4274750903198028e-01  2.8658130170808011e-01  1.3799593562471061e-05  6.5948285893981140e-01  0.0000000000000000e+00  1.6993171347955870e-02  1.8837837273259980e-02  1.7914327517071425e-06  2.4261352276209738e-06  6.3914550635959022e-02  3.3540185162812028e-02  7.1661614951191291e-05  3.5317198478086308e-02  6.4391610352350548e-01  4.8548922395286992e-01  8.0794011515728729e-04  4.3614221994779087e-04  0.0000000000000000e+00  1.2401003177082226e-06  1.6619882989396808e-07  3.7713935617541162e-07  5.6293835927677930e-07  2.0085724042566839e-07  3.5486443213115424e-07  1.2922816443170287e-07  4.1010010704670463e-01  3.9801801673571940e-01  4.9070030130918722e-06  1.5971705848748594e-07  1.6140194120899016e-07  1.0107642140643469e-06  4.6303882092757410e-02  1.6761974552133140e-02  2.5038694728867020e-07  1.2645768371647797e-05  6.7744361172269590e-03  1.128899027960296